ITEM: TIMESTEP
100
ITEM: NUMBER OF ATOMS
50
ITEM: BOX BOUNDS pp pp pp
-5 5
-5 5
-5 5
ITEM: ATOMS id type x y z vx vy vz 
1 1 -0.396773 -1.25902 -1.54895 -0.00954186 -0.00757276 0.0309682 
2 1 -0.685504 1.01117 0.810525 -0.0433861 -0.00309172 0.0359358 
3 1 -1.85657 3.03908 -0.956956 0.0263748 0.00157216 -0.0213528 
4 1 0.2476 -4.07945 -1.5084 -0.00600521 -0.00776271 0.00268162 
5 1 -2.82588 0.47651 -1.24227 0.00629804 -0.022556 -0.0136877 
6 1 -1.58231 2.21606 2.90114 0.0227193 -0.000277469 -0.0171201 
7 1 -1.78275 -4.39824 0.133098 -0.0152368 0.00636486 -0.0062414 
8 1 -0.096931 3.74788 -2.79455 0.0141057 -0.0127724 -0.00279964 
9 1 -4.62598 3.01678 2.94927 0.0248463 -0.0137351 0.0160715 
10 1 3.02179 2.98085 -2.12626 -0.00538447 -0.0106574 0.0296506 
11 1 3.07505 4.61057 2.14666 0.0185227 -0.00895075 -0.00911988 
12 1 -3.56687 1.60391 1.18168 -0.00569018 0.0175317 -0.00153498 
13 1 3.72491 1.31717 3.14873 -0.00580199 0.00104058 -0.0292028 
14 1 -2.74968 0.102275 -3.42986 0.0209026 -0.0264858 0.0303796 
15 1 1.95063 0.384519 0.247105 0.0168571 1.46839e-05 0.00616571 
16 1 -4.55658 3.85356 0.0766369 0.0137469 -0.0374312 0.0131342 
17 1 0.938405 3.56451 0.0510833 7.7177e-05 -0.0334289 -0.00746172 
18 1 3.13285 0.348286 -2.221 -0.030491 0.0165155 -0.00506902 
19 1 -3.82162 0.0817117 3.43663 -0.0370071 -0.00878144 0.0031406 
20 1 0.599988 1.60756 -1.41304 -0.0232646 0.0210083 0.00581033 
21 1 -4.90668 1.58206 -1.24245 0.00593168 0.0242059 0.00786982 
22 1 -0.288976 -2.08815 0.773767 -0.00447422 0.0169976 -0.0320925 
23 1 1.379 2.57086 2.30542 0.0161649 0.0057769 0.0141961 
24 1 3.52379 2.19225 0.751415 -0.0232285 0.000211779 -0.0206787 
25 1 -4.52352 1.3953 -4.15179 0.00989358 0.0254128 0.00966384 
26 2 1.36664 3.08202 -1.66672 0.0207239 -0.0270731 0.0220935 
27 2 -3.41415 1.76016 -0.344912 0.0144662 0.0247087 -0.0218031 
28 2 -2.83981 2.90045 2.70441 0.0233651 -0.00950628 -0.0165287 
29 2 3.69053 0.480376 -0.506144 -0.0429157 0.0195195 0.00378651 
30 2 -2.20252 0.739678 1.65805 0.0167822 0.0113485 -0.0315751 
31 2 -3.29359 4.72554 0.0700741 -0.000169135 -0.0192319 0.000220173 
32 2 -0.0591131 2.06274 2.54334 0.0296659 0.00999211 -0.0166821 
33 2 3.87066 1.55046 -3.14599 0.0145828 -0.00428241 0.019198 
34 2 -3.86052 0.885736 -2.2779 -0.0356331 8.96543e-05 -0.0140628 
35 2 -0.755829 -2.83036 -0.595982 0.013056 0.0285574 0.0348687 
36 2 -3.52804 0.0883093 5.15753 -0.0282602 0.00601283 -0.0146974 
37 2 -0.613729 4.56354 -0.00391872 0.0138145 -0.0320311 -0.0133213 
38 2 0.348868 -0.744618 0.59923 -0.00438801 0.0500547 0.00251611 
39 2 -1.30557 2.52337 -2.85569 -0.0050286 0.016339 -0.00589879 
40 2 1.3238 -0.00744714 -1.76591 -0.0355532 0.0176719 -0.0199464 
41 2 4.23734 3.0879 -0.625978 -0.000504464 -0.0101178 0.0271926 
42 2 2.52485 1.43388 1.96555 -0.0320853 -0.00224785 -0.0189775 
43 2 1.78562 4.27589 1.30792 0.0184578 -0.0216406 -0.0218364 
44 2 4.41054 3.73505 1.56538 -0.00665338 0.0274083 -0.034661 
45 2 -1.83094 -0.321913 -2.02754 0.016381 0.0222346 0.0200848 
46 2 1.75941 1.92715 0.160951 -0.00742784 -0.018956 0.0412378 
47 2 0.134 -4.55854 -2.72315 0.0252228 0.0283747 0.0515271 
48 2 -4.74243 1.34116 2.24012 -0.0128457 -0.0299886 0.00351103 
49 2 -0.754411 1.66709 -0.49434 -0.00654524 -0.0348825 -0.00241478 
50 2 4.91653 2.24234 4.52547 0.0245628 0.00449698 -0.0331376 
ITEM: TIMESTEP
200
ITEM: NUMBER OF ATOMS
50
ITEM: BOX BOUNDS pp pp pp
-5 5
-5 5
-5 5
ITEM: ATOMS id type x y z vx vy vz 
1 1 -0.43157 -0.990112 -1.36708 0.0167834 0.0503988 0.00104047 
2 1 -0.716649 0.816345 1.04221 0.0520006 -0.0204194 -0.0128864 
3 1 -1.68934 2.86834 -1.05999 0.00281239 -0.0165338 0.000581611 
4 1 0.155184 -3.98561 -0.916865 -0.00670181 -0.00704835 0.0533912 
5 1 -2.65878 0.571493 -0.956786 0.029236 0.035377 0.0472058 
6 1 -1.38698 2.21566 2.75907 -0.00595486 0.0135445 -0.00549031 
7 1 -1.99722 -4.53834 0.0655923 -0.0164513 -0.03253 -0.00654235 
8 1 0.0962847 3.71189 -2.85285 0.0299131 0.0161318 0.00120684 
9 1 -4.19338 2.94731 3.12829 0.0413983 0.00853063 0.0148614 
10 1 3.00117 2.86476 -1.7366 -0.000338968 -0.00938691 0.0300654 
11 1 3.26527 4.55548 1.81759 0.00927729 0.00515327 -0.0435246 
12 1 -3.42492 1.65179 1.26265 0.0226372 -0.00544748 0.0115506 
13 1 3.78808 1.26356 2.93275 0.0429639 -0.0067477 0.00620777 
14 1 -2.55357 -0.145053 -3.36373 0.00297164 -0.0153517 -0.0156974 
15 1 1.96381 0.269182 0.384437 -0.0220306 -0.0124364 0.0207104 
16 1 -4.45402 3.69322 0.289343 0.0126169 0.00412965 0.0199986 
17 1 0.932213 3.36137 0.0345181 -0.0150391 0.00342523 -0.00213296 
18 1 2.74229 0.466027 -2.16453 -0.0416917 0.00890502 0.0124405 
19 1 -4.09852 0.216461 3.52791 -0.0191556 0.0314508 0.011605 
20 1 0.40704 1.46623 -1.39706 -0.0119952 -0.0379104 -0.00086457 
21 1 -4.89991 1.70127 -1.32937 0.00063059 -0.0110985 -0.0347934 
22 1 -0.214195 -1.73907 0.814643 0.0174604 0.0485723 0.0440557 
23 1 1.48059 2.51507 2.20018 0.00463662 -0.0148955 -0.0283191 
24 1 3.18787 2.24294 0.461369 -0.0335721 0.00421824 -0.023849 
25 1 -4.70175 1.64136 -4.03389 -0.0355311 0.00909194 0.0121462 
26 2 1.42707 2.99972 -1.80947 -0.00778262 0.00130873 -0.0398316 
27 2 -3.37833 2.15267 -0.446834 -0.00968878 0.0318358 -0.000661745 
28 2 -2.89106 2.88649 2.50434 -0.008227 -0.00385489 -0.0265385 
29 2 3.33055 0.713181 -0.584145 -0.0342359 0.0174715 -0.00799519 
30 2 -2.23701 0.755127 1.55676 -0.0282046 -0.0115135 0.0124673 
31 2 -3.10686 4.59487 -0.0304217 0.0179696 -0.00946052 -0.0160057 
32 2 0.00492776 2.169 2.37321 -0.0146423 0.0076073 -0.0150932 
33 2 3.77605 1.64322 -2.78863 -0.0351737 0.0282797 0.0355922 
34 2 -4.04538 0.751971 -2.6345 0.0217027 -0.0213002 -0.0275916 
35 2 -0.609489 -2.7359 -0.430078 0.0152963 -0.00399796 0.00485433 
36 2 -3.73958 0.188325 -5.01112 -0.00737894 0.00910733 -0.0122207 
37 2 -0.495008 4.24683 -0.399215 0.00684671 -0.0174597 -0.0516415 
38 2 0.297061 -0.282966 0.624891 -0.00356938 0.0216711 0.00209302 
39 2 -1.22069 2.91313 -2.70547 0.0147434 0.0467658 0.0314999 
40 2 1.07882 0.208477 -1.98613 -0.0100799 0.0152318 -0.0219763 
41 2 4.1963 2.8403 -0.717523 -0.00514542 -0.0132239 -0.0195887 
42 2 2.64155 1.36778 2.29918 0.00799511 -0.00178788 0.0357195 
43 2 1.9651 3.96712 1.28731 0.0152236 -0.0368258 0.0108923 
44 2 4.51612 3.83275 1.61896 0.0426299 -0.0154473 0.0264738 
45 2 -1.5933 -0.436762 -2.00758 -0.000901831 -0.0227499 -0.012585 
46 2 1.42872 1.94851 0.254039 -0.0349393 0.00183703 -0.00568562 
47 2 0.326848 -4.68814 -2.66745 0.0154581 -0.0272208 0.00464896 
48 2 -4.88585 0.946259 2.25723 0.00776017 -0.0474696 -0.012435 
49 2 -0.918923 1.60957 -0.53353 -0.0335244 0.00686401 0.00257487 
50 2 5.02893 2.25489 4.17587 -0.00900735 -0.00479115 -0.0099332 
ITEM: TIMESTEP
300
ITEM: NUMBER OF ATOMS
50
ITEM: BOX BOUNDS pp pp pp
-5 5
-5 5
-5 5
ITEM: ATOMS id type x y z vx vy vz 
1 1 -0.131748 -0.714334 -1.45795 0.0171355 -0.00923872 -0.0130939 
2 1 -0.418041 1.14423 0.987405 0.00298951 0.0612379 0.00488698 
3 1 -1.8175 3.125 -1.06635 -0.030375 0.050893 -0.00407661 
4 1 0.205306 -4.24173 -0.847878 0.0177841 -0.00999308 -0.0390015 
5 1 -2.36699 0.809719 -0.665639 -0.00359813 -0.0133369 0.000351077 
6 1 -1.58532 2.39974 2.73586 -0.00312067 0.0125899 0.00241757 
7 1 -1.87391 -4.79476 0.0063535 0.0202478 -0.0199867 -0.00208328 
8 1 0.360676 3.87238 -2.67508 0.00548621 0.0117916 0.0205022 
9 1 -4.14606 3.28055 3.2972 -0.021646 0.0512188 0.00896814 
10 1 2.85967 2.92398 -1.8397 -0.0121046 0.0271984 -0.034106 
11 1 3.43591 4.56266 1.43437 0.028271 -0.016732 -0.0306977 
12 1 -3.43693 1.6046 1.29268 -0.0215379 -0.0162097 -0.0043137 
13 1 4.10423 1.42759 3.0465 -0.0164315 0.0380028 -0.0118004 
14 1 -2.77763 -0.147424 -3.50694 -0.0393344 0.0127087 -0.00696202 
15 1 1.8279 0.240121 0.58632 0.0095484 0.00204398 0.0153149 
16 1 -4.29117 3.6515 0.343188 0.00653816 -0.025309 -0.00695654 
17 1 0.62759 3.50588 -0.0716893 -0.0167946 -0.00164502 -0.000822368 
18 1 2.46945 0.575839 -2.08146 -0.00972891 0.0119517 0.00358238 
19 1 -3.97309 0.45377 3.5862 0.0523736 0.00542882 -0.00163603 
20 1 0.299331 1.53991 -1.39679 -0.00616371 0.0522567 -0.00556156 
21 1 -4.86736 1.51174 -1.6546 0.0079406 -0.0123928 -0.00866551 
22 1 -0.169 -1.64558 1.25395 -0.0127424 -0.0261507 0.0295118 
23 1 1.38819 2.32272 2.04248 -0.0207592 -0.0118338 0.0032811 
24 1 3.09584 2.15542 0.405756 0.0152138 -0.0161357 0.00585639 
25 1 -5.06266 1.52116 -4.02579 -0.0318971 -0.026261 -0.0176359 
26 2 1.3847 2.89272 -2.10832 -0.00391763 -0.0269037 -0.00636629 
27 2 -3.53495 2.08464 -0.394704 -0.0152545 -0.0439668 0.0107765 
28 2 -2.83466 2.8455 2.21849 -0.00854482 0.00273586 -0.0187861 
29 2 2.94068 0.698122 -0.49255 -0.0298637 -0.016425 0.0182685 
30 2 -2.15085 0.458151 1.65631 0.0401241 -0.032716 0.00338716 
31 2 -3.20766 4.48832 -0.20864 -0.00586261 0.00603685 -0.0229758 
32 2 -0.175104 2.17211 2.19515 -0.0224108 -0.00391762 -0.0201227 
33 2 3.56277 1.83334 -2.75013 0.010249 -0.00688217 -0.0269679 
34 2 -3.78762 0.734301 -2.67523 0.000619084 0.0272501 0.016042 
35 2 -0.38699 -2.68206 -0.171383 0.0299199 -0.00174578 0.043119 
36 2 -3.64737 0.215312 5.00579 0.0230294 -0.00506024 0.0152534 
37 2 -0.496819 4.36028 -0.544244 -0.0157789 0.0365277 0.0323541 
38 2 0.452051 -0.427072 0.495068 0.0179399 -0.0316557 -0.0200488 
39 2 -1.17388 3.18407 -2.47987 -0.00152964 0.00559388 0.00931804 
40 2 0.954558 0.107638 -2.14087 -0.0217162 -0.0215357 -0.00780498 
41 2 4.17704 3.04951 -0.597692 -0.0123215 0.0390445 0.0327557 
42 2 2.56355 1.36227 2.40702 0.00846966 -0.00975142 -0.00348644 
43 2 2.13031 3.65296 1.28356 0.0214359 -0.0176306 -0.0183336 
44 2 4.96485 3.62669 1.91452 0.0283137 -0.0156741 0.0317601 
45 2 -1.79656 -0.524341 -2.13981 -0.0109535 -0.00101925 -0.00600359 
46 2 1.17285 1.8244 0.170689 -0.0340922 -0.00627908 -0.0130675 
47 2 0.549036 -4.58948 -2.50861 0.0321248 0.0501414 0.028847 
48 2 -4.61717 0.514542 2.07198 0.0248469 -0.0231451 -0.0068641 
49 2 -1.16719 1.42969 -0.452765 0.0169886 -0.0111184 0.00711295 
50 2 -5.13675 2.09174 4.25932 -0.00910947 -0.0240006 0.0145739 
ITEM: TIMESTEP
400
ITEM: NUMBER OF ATOMS
50
ITEM: BOX BOUNDS pp pp pp
-5 5
-5 5
-5 5
ITEM: ATOMS id type x y z vx vy vz 
1 1 -0.21457 -0.976614 -1.40139 -0.0167678 -0.0189928 0.0155681 
2 1 -0.627094 1.24658 0.829754 -0.0338936 -0.0333789 -0.0227045 
3 1 -2.24004 3.37012 -1.22041 -0.0341858 -0.0052861 -0.0286399 
4 1 0.356169 -3.83287 -1.05183 -0.000491269 0.0741428 0.0359663 
5 1 -2.48959 0.442259 -0.950218 0.00177024 -0.0340592 -0.0459605 
6 1 -1.59725 2.50253 2.81402 -0.0117849 0.0128579 0.00593126 
7 1 -1.87665 -4.67732 0.241953 -0.0129318 0.0414403 0.0472162 
8 1 0.204914 4.08337 -2.64638 -0.0227748 0.0257186 -0.00547327 
9 1 -4.31733 3.6602 3.31763 -0.00454858 0.0136235 -0.00294059 
10 1 3.00318 3.24667 -2.15931 0.0247827 0.0251263 -0.0241548 
11 1 3.72599 4.20912 1.15525 0.0169926 -0.0388009 -0.0298831 
12 1 -3.59591 1.2843 1.31394 0.00236018 -0.0355849 0.0061537 
13 1 3.9273 1.76732 2.84625 0.0113858 0.024126 -0.00961634 
14 1 -3.06863 0.0317534 -3.37539 -0.0122791 0.0209951 0.0332843 
15 1 1.84436 0.157738 0.690536 -0.0107616 -0.0124212 0.00517619 
16 1 -4.2939 3.34645 0.243038 0.00585192 -0.0208824 -0.00735906 
17 1 0.724141 3.43462 0.185105 0.0205924 0.0133043 0.0380386 
18 1 2.38341 0.671229 -2.03592 -0.0090379 0.00900279 0.00721018 
19 1 -3.40595 0.408232 3.51188 0.0459728 -0.0114426 -0.00268493 
20 1 0.168128 1.81264 -1.58346 -0.0289189 -0.0095244 -0.0269283 
21 1 -4.84132 1.55334 -1.46731 -0.0182145 0.0155186 0.0346155 
22 1 -0.340531 -1.83936 1.21647 -0.0156379 -0.00326816 -0.0263022 
23 1 1.35745 2.36731 2.20965 0.0141927 0.0121842 0.0191134 
24 1 3.2779 2.06673 0.395486 0.00342425 -0.0071342 -0.0112362 
25 1 4.69277 1.25978 -4.29701 -0.0138767 -0.0227944 -0.0220003 
26 2 1.33509 2.75232 -2.0484 0.0189677 0.0182405 -1.59685e-05 
27 2 -3.72639 1.60143 -0.22491 -0.026562 -0.0379102 0.0208771 
28 2 -2.98741 2.82126 2.18778 -0.0112946 -0.0126152 0.0116187 
29 2 3.00917 0.592304 -0.434781 0.0362555 0.00277694 -0.00647056 
30 2 -1.74021 0.274424 1.66382 0.0316506 -0.00703299 -0.000684798 
31 2 -3.09631 4.5229 -0.480314 0.0109959 -0.0160195 -0.0241443 
32 2 -0.226897 2.34326 2.1987 0.0141519 0.0353919 0.0190173 
33 2 3.81958 1.6251 -2.95263 0.015322 -0.0190611 -0.00123211 
34 2 -3.9729 1.08933 -2.56198 -0.00604013 0.0230927 -0.00892453 
35 2 -0.147645 -2.99592 0.226607 0.0106367 -0.0564617 0.0248166 
36 2 -3.38276 0.0986475 -4.90536 0.0266358 -0.0157041 -0.00825801 
37 2 -0.527536 4.60111 -0.124022 0.0267354 0.00327562 0.0336817 
38 2 0.557944 -0.717473 0.467779 0.00420581 -0.0210668 0.00859921 
39 2 -1.10042 3.22229 -2.37468 0.0115552 0.0118186 0.0113228 
40 2 0.88879 0.0685329 -2.24722 0.00451612 0.00509426 -0.00667794 
41 2 3.97604 3.37454 -0.313857 -0.00380669 0.0196292 0.00914912 
42 2 2.6297 1.25363 2.14043 -0.00742957 -0.00697695 -0.0501357 
43 2 2.28251 3.55006 1.07513 -0.00268584 -0.00567094 -0.00564468 
44 2 4.77379 3.58299 2.02964 -0.0607033 0.00101418 -0.00914294 
45 2 -1.8154 -0.526507 -2.10348 -0.00420054 0.000740141 0.0166884 
46 2 0.91832 1.95249 0.184004 0.00282806 0.00644563 0.021748 
47 2 0.960869 -4.27138 -2.36745 0.0485041 -0.00113201 -0.0194588 
48 2 -4.49077 0.555523 2.23447 0.00141765 0.0183451 0.0377284 
49 2 -1.05721 1.60327 -0.621973 -0.0416609 0.0226365 -0.0434157 
50 2 4.85868 1.91772 4.31184 -0.00121528 -0.00331965 -0.0134311 
ITEM: TIMESTEP
500
ITEM: NUMBER OF ATOMS
50
ITEM: BOX BOUNDS pp pp pp
-5 5
-5 5
-5 5
ITEM: ATOMS id type x y z vx vy vz 
1 1 -0.255067 -0.853513 -1.40796 0.00867639 0.0400283 -0.0191278 
2 1 -0.750925 1.02677 0.646679 0.0152682 -0.002581 -0.0167265 
3 1 -2.25397 3.13231 -1.54688 0.0156264 -0.0313469 -0.0265534 
4 1 0.558379 -3.5012 -0.853664 0.0397816 -0.0125995 0.00440238 
5 1 -2.58103 0.524861 -1.13134 -0.0383745 0.0376744 0.0124318 
6 1 -1.611 2.65596 2.74015 0.0113875 0.0172083 -0.0196984 
7 1 -1.78428 -4.4728 0.566601 0.0396539 -0.00849138 0.00929527 
8 1 0.217122 4.39441 -2.55679 0.0297703 0.0316005 0.0231228 
9 1 -4.33194 3.48705 3.13118 -0.000970336 -0.0430479 -0.0258802 
10 1 3.13291 3.35862 -2.26882 0.00742113 -0.000973152 0.000236849 
11 1 3.49789 4.18174 0.809295 -0.0360608 0.0198244 -0.0281156 
12 1 -3.4223 0.988589 1.35232 0.0183138 -0.0245227 0.00555866 
13 1 4.25841 1.77958 2.73927 0.0395245 -0.0242831 -0.0222208 
14 1 -3.02392 0.15309 -3.34 0.0221971 -0.00331665 -0.0366344 
15 1 1.77739 0.186172 0.69531 -0.00889131 0.00944221 -0.00267642 
16 1 -4.08138 3.27713 0.287298 0.0280447 -0.002602 0.0110658 
17 1 0.811821 3.68119 0.405369 -0.00619332 0.0145206 0.00521641 
18 1 2.38263 0.804402 -1.97154 0.00753109 0.0168413 0.000280095 
19 1 -3.15392 0.25712 3.60401 0.00562286 -0.0149654 0.013452 
20 1 -0.0958616 1.76357 -1.85449 -0.0182613 0.00883266 -0.0245947 
21 1 -5.14451 1.51224 -1.38073 -0.0328635 -0.0228794 -0.014605 
22 1 -0.486404 -1.79291 1.05588 -0.0185765 0.00800594 0.00515616 
23 1 1.50397 2.41593 2.25983 0.00897404 -0.00356395 -0.00461259 
24 1 3.00028 1.95386 0.280939 -0.042969 -0.00389312 -0.00689471 
25 1 4.6768 1.1617 -4.35805 0.00619354 0.0111966 0.00610123 
26 2 1.67501 3.03231 -2.12178 0.0277848 0.0230751 -0.0040695 
27 2 -4.05053 1.41514 -0.0676392 -0.0319933 -0.00376326 0.0141289 
28 2 -3.13838 2.7094 2.35547 -0.0122568 -0.00522228 0.01438 
29 2 3.39018 0.715395 -0.614036 0.0303068 0.0155666 -0.0298583 
30 2 -1.68239 0.22929 1.67081 -0.0234236 -0.00118562 0.00152929 
31 2 -3.06583 4.2467 -0.491997 0.00174608 -0.0351512 0.0217267 
32 2 -0.119517 2.72219 2.49898 0.00778844 0.0360695 0.0374425 
33 2 3.67038 1.57141 -2.83515 -0.0308037 0.00481849 0.0123061 
34 2 -3.82664 1.26087 -2.60756 0.0233022 0.0161307 0.00615838 
35 2 -0.37098 -3.25161 0.565621 -0.0552871 0.011324 0.0381033 
36 2 -3.10826 -0.0523436 -4.93778 0.0263281 -0.0121538 0.0139042 
37 2 -0.295708 4.5201 0.113032 0.00462892 -0.0139062 0.00926835 
38 2 0.481964 -0.831247 0.391146 -0.0142744 -0.000336071 -0.0307438 
39 2 -1.01381 3.42955 -2.43562 0.0137588 0.0211268 -0.0233888 
40 2 0.853319 0.146703 -2.11035 -0.014372 0.0167812 0.0326871 
41 2 4.25582 3.29304 -0.61035 0.0351554 -0.0289705 -0.0465748 
42 2 2.65361 1.22975 1.7375 0.0190309 -0.0012982 -0.0173784 
43 2 2.11593 3.63621 1.24802 -0.0179084 0.0217321 0.0230084 
44 2 4.40663 3.43541 2.15686 -0.0163671 -0.0201294 0.0140659 
45 2 -1.81762 -0.682193 -1.94407 0.00594556 -0.0296579 0.0121567 
46 2 0.894618 1.65017 0.30147 -0.0205272 -0.0476121 -0.00971039 
47 2 1.1878 -4.39168 -2.38279 -0.00481264 -0.00943886 0.0228082 
48 2 -4.4739 0.647941 2.63758 0.0140644 -0.00741575 0.0264461 
49 2 -1.71854 1.60804 -0.913181 -0.0503706 -0.00692072 -0.00825048 
50 2 4.75127 2.12155 4.23342 -0.01827 0.0404286 0.0218752 
