ITEM: TIMESTEP
0
ITEM: NUMBER OF ATOMS
5488
ITEM: BOX BOUNDS pp pp pp
0 47.8793
0 47.8793
0 47.8793
ITEM: ATOMS type id x y z vx vy vz 
1 1 6.92038 17.3389 9.20936 0.0153517 -2.12331e-05 0.0137223 
2 2 23.1951 23.228 34.7287 0.01194 0.0108996 -0.0309825 
1 3 34.8719 11.9265 23.0531 0.00555013 0.00105803 0.0346741 
2 4 44.2987 46.2665 45.0144 -0.00682826 -0.00785619 0.0325809 
1 5 11.345 0.0178471 44.4829 -0.019153 0.0235627 0.0417588 
2 6 33.4554 0.500065 30.6908 -0.000935692 -0.0170509 0.0207499 
1 7 23.439 39.3724 2.20013 -0.0527725 0.0215435 0.029611 
2 8 3.90889 1.50977 15.045 -0.0100115 0.0195218 -0.0161159 
1 9 31.1383 3.52151 25.9246 0.0292197 -0.0591475 0.0252013 
2 10 23.729 30.3516 18.6324 -0.0165154 0.0142807 0.00905204 
1 11 28.4223 13.509 22.9579 -0.00307718 -0.0120554 -0.00559136 
2 12 4.4991 29.9993 31.9044 0.00601893 0.0143334 -0.019508 
1 13 47.7799 15.1427 26.7245 0.02684 0.0303775 0.0201961 
2 14 32.768 3.20529 30.0516 -0.000715549 0.0097683 -0.00239824 
1 15 29.8227 30.8533 2.52565 -0.0290604 -0.00585621 0.0146091 
2 16 3.09652 13.2724 38.344 0.016495 -0.0250344 -0.0052488 
1 17 28.1925 34.0555 15.7911 0.00519978 -0.014136 0.0259278 
2 18 0.542348 44.7475 43.6406 -0.0315164 0.0478928 -0.0294273 
1 19 37.7665 0.641242 31.3591 -0.00525823 -0.0328653 -0.00167946 
2 20 45.1341 4.16812 28.4021 -0.0133141 0.0141765 0.0113867 
1 21 21.1601 31.9684 34.3126 -0.00638894 -0.0280319 -0.00138946 
2 22 13.1869 33.7412 1.54731 -0.000141898 -0.00503596 -0.0159122 
1 23 29.1456 15.4203 5.79547 0.0265918 -0.0179864 0.0174076 
2 24 31.1143 42.9027 46.4979 0.0287193 -0.00647249 -0.00215769 
1 25 43.4277 13.7583 26.2764 0.0226515 0.0207284 -0.0217737 
2 26 36.2942 40.1508 14.2787 -0.00144522 -0.0359963 0.0324751 
1 27 44.9597 2.43796 44.0323 -0.041781 0.0298697 -0.0196302 
2 28 24.5557 9.14991 12.2615 -0.0122689 0.0304207 -0.03386 
1 29 40.5614 25.8295 2.4212 -0.0384512 0.0285388 -0.0140091 
2 30 10.5436 46.1963 45.3981 -0.0203064 0.0036151 0.0242747 
1 31 1.93307 22.5835 3.19009 0.00763923 0.0270683 -0.0114969 
2 32 42.7545 2.36312 30.3173 0.0285846 -0.0335695 0.0161144 
1 33 40.2627 38.9591 14.1489 -0.0327277 -0.0133177 -0.0217629 
2 34 26.7824 29.0113 19.5757 0.000105439 0.0435837 -0.0190194 
1 35 5.15707 7.63597 25.2534 0.025204 -0.0195457 0.0294009 
2 36 25.0894 4.09959 45.8659 -0.0274965 0.0102089 0.00495924 
1 37 25.0381 16.3914 23.4118 0.00203624 0.00833421 -0.0124474 
2 38 30.8737 16.9542 23.7065 0.00382117 -0.0381309 0.00665467 
1 39 28.9313 16.9074 41.3289 -0.0051005 0.00715522 0.00117342 
2 40 17.3282 42.6928 46.8556 0.0338491 0.0269631 0.0407234 
1 41 18.3718 31.2609 34.0917 -0.0322507 0.0109079 0.0378513 
2 42 47.3613 31.0169 3.46399 0.0131717 0.00513672 -0.00947798 
1 43 41.7239 26.375 21.1645 0.0132452 -0.00465897 0.0147577 
2 44 7.32506 9.41866 7.53878 0.0141252 -0.025213 -0.0135432 
1 45 41.6313 32.8549 4.63636 -0.0110635 0.00426069 -0.0247399 
2 46 33.3908 12.8691 22.6817 0.0248716 0.0411048 0.015617 
1 47 41.2325 41.0004 0.143813 0.0254203 -0.0117319 0.00246377 
2 48 44.2832 1.44955 25.8851 0.0227061 0.00517786 -0.0238119 
1 49 28.8531 23.0052 37.4087 0.0164446 0.0607894 0.0212555 
2 50 43.9328 38.5248 30.1476 0.0150195 -0.0396089 -0.0138433 
1 51 3.31066 8.49077 44.2424 -0.0291424 -0.0442645 0.00367169 
2 52 0.49134 10.0558 27.6556 0.0116791 -0.0138913 -0.0555819 
1 53 27.0811 34.7397 3.17999 0.0083731 -0.0163051 -0.0216337 
2 54 20.4412 40.5968 15.4322 0.0209686 0.0178644 0.0258061 
1 55 26.1287 41.0124 13.5966 -0.038902 0.0338675 0.00609803 
2 56 9.12565 23.5542 18.4103 0.0361321 0.0325793 -0.0231911 
1 57 40.1903 23.086 5.8312 -0.0164645 0.0153713 0.0122184 
2 58 47.304 16.0761 23.788 0.0202706 0.0180135 0.00132213 
1 59 22.1115 42.9439 28.531 0.0367978 0.0157355 -0.0299879 
2 60 17.2337 37.9381 14.1644 -0.00947399 0.00376269 0.0240038 
1 61 37.3824 0.861315 13.4664 0.0438132 5.69276e-05 -0.000375413 
2 62 34.5535 44.8357 27.8378 0.0192918 0.0245238 0.0375708 
1 63 12.9523 8.23721 9.96209 -0.00786267 0.00415327 -0.0130007 
2 64 9.59671 20.7131 35.8358 0.00236154 0.017177 0.00332734 
1 65 8.31389 9.16331 28.1062 0.0194923 0.00431234 -0.0278004 
2 66 3.37024 28.9749 34.711 0.0141981 -0.00694064 0.00305737 
1 67 22.2965 30.1504 32.8682 -0.00597542 0.0149129 0.000421967 
2 68 5.97472 35.4878 14.5847 0.0279037 0.00868324 -0.013398 
1 69 5.10703 42.8727 0.0345535 0.0116654 0.0143756 -0.0423403 
2 70 27.1278 15.1935 22.7728 -0.00300925 -0.0244199 0.00707856 
1 71 46.54 1.9596 45.7715 0.0217727 -0.0236426 0.0136579 
2 72 8.74004 25.0948 21.5198 0.0513421 0.00650471 -0.0141573 
1 73 43.9432 38.6244 18.2932 0.0128694 -0.0151902 0.0175978 
2 74 4.07274 42.9917 44.2034 0.0152962 -0.0196358 -0.0147282 
1 75 19.9379 30.0817 4.25167 0.0156583 -0.00918808 0.0039292 
2 76 39.8309 0.24998 11.275 0.0093495 -0.0392984 -0.00907018 
1 77 1.33283 26.513 37.8674 0.0357797 0.0039062 -0.0217469 
2 78 47.8072 4.95814 9.3313 -0.00828509 0.0333996 -0.0171165 
1 79 21.044 26.7635 33.8482 0.0331483 -0.0133829 -0.0304077 
2 80 29.221 43.2513 44.4385 0.000755707 0.0327214 0.0125814 
1 81 41.6766 10.5829 39.5159 -0.0364572 0.0184464 -0.0122658 
2 82 28.3183 24.4123 2.94014 0.0104113 0.0233879 -0.00771007 
1 83 46.8429 46.4408 42.6863 -0.0259539 -0.0300873 -0.0148539 
2 84 26.9881 4.92953 11.8212 -0.000797421 0.0284393 -0.0134065 
1 85 44.7907 8.35261 7.5 0.00364243 0.00713653 0.0168856 
2 86 10.0318 28.4894 33.2893 0.0245712 -0.00680884 0.0138115 
1 87 45.1104 9.96896 12.0311 0.0247288 0.00191144 -0.0351325 
2 88 3.11975 42.2444 14.9679 -0.00239239 0.00112448 0.00653083 
1 89 44.6616 15.7509 40.0946 0.0066759 0.00290962 0.000211534 
2 90 44.8057 30.2186 3.72487 0.00901908 -0.0158428 0.00668299 
1 91 42.1571 41.9159 28.7543 0.0438061 -0.0372325 0.0496918 
2 92 18.3991 7.98177 44.7281 0.0240187 -0.0332922 -0.0327411 
1 93 41.015 35.3859 3.60524 -0.0425576 0.00715607 0.00850601 
2 94 23.8844 30.4022 37.0583 -0.01619 0.00275128 0.019838 
1 95 1.77467 40.7022 47.2216 -0.038528 0.0351574 0.0408322 
2 96 0.889601 18.4192 24.8792 0.00970966 0.0467371 0.0282224 
1 97 18.68 14.7817 42.0939 0.00551779 0.0102594 0.0153243 
2 98 29.861 4.31846 25.4268 0.00494129 -0.0295584 -0.0072478 
1 99 9.97269 35.119 46.6443 -0.0225777 0.0287093 0.0245102 
2 100 34.511 1.60185 28.3591 0.0457368 0.000587101 -0.0287209 
1 101 35.5163 13.9822 24.3169 0.0300095 -0.0105994 -0.0356782 
2 102 38.7635 4.53266 45.4828 0.0238138 0.00996197 0.00583078 
1 103 11.0184 26.5931 3.62879 -0.0121057 -0.0360997 0.0207011 
2 104 40.7282 29.948 32.2768 0.0264481 -0.0143278 -0.0232185 
1 105 3.72194 1.31655 13.0915 0.00399339 0.0221673 -0.0318427 
2 106 18.511 45.775 29.5889 -0.016512 -0.0104467 0.00447391 
1 107 0.39629 13.4927 40.5437 0.0165256 -0.00717557 -0.0158008 
2 108 19.6912 15.9534 9.56844 0.0407638 -0.0301478 0.0292266 
1 109 39.2636 30.2557 6.0818 0.0461362 -0.0138003 0.0347477 
2 110 42.8784 3.38241 43.6448 -0.00113825 0.0409828 0.0368602 
1 111 26.7896 13.4881 42.5694 0.00713468 -0.0772768 -0.0248187 
2 112 33.863 47.015 43.1201 -0.00914725 -0.0270658 -0.00935182 
1 113 30.9294 33.7629 35.6093 0.0212429 -0.00893968 0.0282807 
2 114 34.0749 41.5396 15.7368 0.0366595 -0.0134797 0.0353226 
1 115 32.5927 31.6157 18.9998 0.00817269 -0.0104841 -0.0608327 
2 116 16.504 17.5124 40.7758 -0.0050791 0.0296576 -0.0534891 
1 117 6.58917 39.4468 45.5659 -0.033494 0.0154513 0.0191366 
2 118 24.4907 29.8539 4.80343 -0.0315189 0.0278137 0.0140797 
1 119 43.6666 1.35147 31.0141 -0.0017408 -0.0324162 0.00492421 
2 120 46.4037 32.1833 35.7387 0.00227872 -0.0103342 0.00403407 
1 121 47.546 19.7036 19.9062 -0.00569644 0.0215678 -0.00646945 
2 122 14.2132 20.7649 37.7366 0.00951365 0.0220707 -0.014473 
1 123 27.1027 0.293602 46.9994 -0.0134599 -0.00147395 0.00511966 
2 124 4.79006 9.9243 11.7318 -0.00900316 -0.0122018 0.00887307 
1 125 32.1723 2.97398 10.1894 -0.0479631 0.00814405 -0.0174997 
2 126 33.2663 22.5413 5.89656 0.0387589 -0.0146219 -0.0111687 
1 127 38.0019 45.8843 14.288 0.0196373 0.0466471 0.0270682 
2 128 37.8987 39.6318 16.3927 0.00211449 -0.00917924 0.0322232 
1 129 26.2441 38.9218 46.2695 0.00326037 0.0223852 0.015279 
2 130 0.0783572 44.1444 14.6964 0.000984131 -0.00375846 0.0445252 
1 131 27.7598 45.858 47.6055 -0.014009 0.0253718 0.010366 
2 132 25.9423 46.325 31.0857 -0.0356435 0.0258919 0.0308611 
1 133 36.3355 16.4877 39.8309 -0.0263042 -0.0205996 0.00691062 
2 134 43.2792 27.1743 4.74244 -0.015771 0.0352449 -0.0188389 
1 135 26.0345 26.3679 22.0267 0.0328047 0.00831569 -0.0307282 
2 136 40.9994 4.85902 29.5261 0.0375191 0.0227842 0.0320699 
1 137 0.320197 42.4749 17.6734 -0.0100497 -0.000447206 0.0500103 
2 138 21.1575 32.1875 36.1674 -0.0442845 0.00580207 -0.0110134 
1 139 36.5089 24.8778 21.2405 -0.0176938 0.000407134 -0.01211 
2 140 20.1742 37.0381 18.7078 -0.0102223 -0.0168032 -0.0208152 
1 141 23.1301 18.4067 9.51934 -0.0143116 0.0207686 0.00472998 
2 142 6.45309 12.9527 26.3877 0.0134723 0.0124871 -0.0272787 
1 143 22.1818 25.8836 3.81599 0.0301745 0.0132163 0.000813026 
2 144 41.3961 40.4896 29.1394 0.0249274 0.00479895 0.0374214 
1 145 45.1014 37.0059 1.17923 0.0075103 0.0028776 0.0250161 
2 146 24.4296 10.0255 41.133 -0.0439404 -0.0307399 0.0170693 
1 147 18.7503 44.713 27.9981 -0.0180707 -0.0113677 -0.0190717 
2 148 11.8009 10.563 38.9924 -3.48487e-05 -0.000843095 0.0152051 
1 149 47.4508 22.2889 23.7516 -0.0189726 -0.0275273 0.00667363 
2 150 17.5422 10.387 27.4401 -0.0138808 -0.0154344 0.00270595 
1 151 18.3824 13.1338 6.45204 -0.0627534 -0.00283177 -0.00619382 
2 152 4.17381 36.9445 0.331416 -0.00761309 -0.0137585 0.0148384 
1 153 21.3672 37.7151 34.3185 0.0336074 -0.0283221 0.0079845 
2 154 18.3054 42.4176 1.04105 0.0402788 -0.00743098 0.0289486 
1 155 26.6589 26.8659 37.7322 0.0141828 -0.00912573 -0.0297857 
2 156 41.6031 29.967 17.0105 -0.0204876 0.0243049 -0.0292661 
1 157 38.7431 19.8297 7.15554 0.00176494 0.0250015 0.021499 
2 158 36.645 6.33635 13.137 0.00451391 -0.00739805 -0.000875863 
1 159 25.8087 31.488 20.7963 -0.00644649 -0.00125319 0.00491515 
2 160 11.3087 0.714902 46.5026 -0.0145333 0.00240153 0.0316613 
1 161 0.193159 25.284 20.0728 -0.00374429 0.0171037 0.0204859 
2 162 0.759996 33.8767 15.3469 0.0174857 -0.0245134 0.0170898 
1 163 30.1832 39.3133 47.2922 -0.048482 -0.00799899 -0.0136838 
2 164 19.946 2.4396 13.867 -0.0139781 0.0512584 0.0186697 
1 165 39.9367 22.0687 38.1674 0.00657522 -0.0210902 -0.0311672 
2 166 25.7874 2.4685 28.421 -0.0031521 -0.0185837 0.00870516 
1 167 16.7541 6.85948 39.9826 -0.0211313 0.0494722 -0.0173688 
2 168 32.2529 4.5959 25.4611 -0.023142 0.00824443 -0.00277621 
1 169 9.45555 9.4604 25.8728 -0.0268001 0.008393 -0.0108461 
2 170 45.6058 34.6531 35.0481 0.0702587 -0.00474233 0.0144285 
1 171 33.7223 43.1169 13.0882 -0.037535 -0.0152099 -0.0278302 
2 172 17.2082 28.3158 20.8255 -0.0138539 -0.0176283 0.0074442 
1 173 4.94665 14.1002 26.2629 0.000279716 0.02237 -0.0451913 
2 174 13.8491 1.54032 46.3588 -0.00352234 0.00774725 -0.0201496 
1 175 6.73635 35.7216 16.6911 -0.0222688 -0.0060949 0.01432 
2 176 24.1342 28.975 0.570249 -0.0171491 -0.0249359 0.0172182 
1 177 46.8606 9.22441 28.2731 -0.0102707 -0.0241893 -0.00592828 
2 178 14.6716 45.3572 43.6421 -0.0207944 -0.0191542 -0.0110517 
1 179 10.4848 11.2188 6.59042 -0.0076927 -0.00347713 0.0209992 
2 180 41.8503 25.2397 3.07828 0.00974288 0.0260303 0.0422392 
1 181 4.99465 26.7848 21.3325 0.0152973 0.009334 0.0241662 
2 182 45.2718 18.8294 22.291 0.0185497 -0.0151518 0.0258883 
1 183 1.15391 8.60478 42.3 0.0209519 -0.000470306 -0.000316567 
2 184 46.4005 25.5229 5.42509 -0.0264448 0.0103728 0.0316099 
1 185 10.2122 14.8954 10.1036 0.0265976 0.0193398 -0.0297349 
2 186 39.6702 9.74019 27.2119 0.0257189 -0.0225235 -0.018186 
1 187 15.2602 18.8953 24.4637 0.0229046 0.00580511 0.0204271 
2 188 17.8328 29.4471 18.8068 0.00794206 0.00888166 -0.0059159 
1 189 37.6163 38.5608 29.4905 -0.0011305 -0.0147289 0.0235011 
2 190 21.6667 5.9764 44.8094 -0.0326891 -0.00767808 0.0430028 
1 191 29.8333 20.6777 38.6041 0.0188765 7.48299e-05 -0.0116144 
2 192 17.1855 34.3874 16.698 0.0224267 -0.00225735 -0.0193916 
1 193 7.44548 36.0478 35.0551 -0.0281424 -0.0197328 -0.0139 
2 194 43.4766 21.6785 8.4226 0.00318032 0.00691099 -0.00678732 
1 195 14.4575 9.29554 7.80012 0.025774 0.00394967 0.0142379 
2 196 38.5205 37.3732 16.993 0.0199392 0.0242338 0.0133228 
1 197 5.42609 40.9285 33.8025 -0.0219579 0.0364041 0.0416529 
2 198 7.20903 19.5245 4.11631 -0.0153557 -0.0310622 0.0101961 
1 199 41.5124 0.547645 15.1272 0.0154722 -0.000979161 -0.00835631 
2 200 40.1589 31.9268 18.8861 -0.0248354 -0.0334956 0.0194231 
1 201 39.2975 6.04676 29.2357 -0.0151745 0.00292801 -0.0295193 
2 202 14.2661 14.5251 9.84138 0.018961 0.0217041 0.0189356 
1 203 15.6469 37.2957 30.403 -0.045777 -0.00293804 0.0597187 
2 204 33.1331 16.8313 26.389 -0.00784399 0.026779 -0.0620185 
1 205 30.5629 19.8346 24.9367 0.0197182 -0.0184245 0.0364059 
2 206 29.7975 18.3247 25.4426 0.00555678 0.00233906 -0.0331514 
1 207 28.0775 42.1191 28.284 0.0159043 -0.0177456 -0.0030742 
2 208 28.3324 21.5156 37.6327 -0.0213373 -0.0174533 -0.0259406 
1 209 7.73057 14.0333 26.5142 -0.0232787 -0.0127596 -0.0334438 
2 210 37.2387 33.3549 3.91365 0.0130106 0.0379455 0.0559805 
1 211 40.4662 29.8952 36.3413 0.00171916 -0.00265683 -0.0080633 
2 212 22.0869 22.53 37.0959 0.0279986 0.00497117 0.0226155 
1 213 32.4152 7.61673 42.4413 0.00631688 -0.0181871 0.00621722 
2 214 8.97335 47.1613 10.9413 0.0237059 -0.0176654 -0.0166983 
1 215 18.8548 34.5218 31.5024 0.00282452 -0.00465429 0.037824 
2 216 2.15326 47.2933 32.3136 0.0259972 0.0030882 -0.0224457 
1 217 40.7008 43.8519 45.8765 0.0218209 -0.0360396 0.0127403 
2 218 32.322 30.8265 47.8599 0.0129421 -0.0156327 0.0238383 
1 219 7.98909 37.8855 17.6626 -0.0293171 0.013433 0.00678589 
2 220 28.162 13.8553 6.39056 -0.0148062 0.00642367 -0.00210695 
1 221 36.2113 20.3766 20.6717 0.00996191 0.0340335 -0.0187639 
2 222 3.55213 28.4005 3.36821 0.00880962 0.037156 0.0351428 
1 223 34.4831 34.1118 1.57311 0.045028 -0.0176971 -0.0057517 
2 224 4.57904 31.7431 17.7792 -0.0056629 -0.0365364 -0.0254253 
1 225 3.67755 11.8012 41.3534 0.0137621 0.00293673 -0.0139641 
2 226 25.348 20.1733 6.38228 -0.0335573 -0.0304158 -0.0254268 
1 227 2.95793 37.7911 16.3935 -0.00952429 -0.0232804 0.0051463 
2 228 33.6914 9.14184 10.3458 -0.00505694 -0.0216201 0.00634057 
1 229 9.22009 30.4469 4.30155 0.0251934 -0.0133695 0.0273252 
2 230 23.2517 28.2134 35.9676 -0.0143596 -0.0209819 0.00278874 
1 231 37.3221 27.7304 33.3911 -0.0188153 -0.00338024 -0.0101751 
2 232 41.4382 25.247 18.1141 -0.0230672 0.0231459 0.0153298 
1 233 39.7005 41.8554 28.9029 0.025728 -0.0146439 0.0170873 
2 234 33.4122 16.5976 10.5112 -0.0217736 0.0223527 0.0428922 
1 235 0.0698442 0.167833 44.793 -0.0147842 -0.00949981 0.0515507 
2 236 5.20623 42.1723 46.3949 0.0389745 0.0134706 0.00102515 
1 237 9.83084 6.40937 26.9135 -0.00347918 -0.0229801 -0.0371997 
2 238 40.349 23.5236 38.8549 -0.00616287 0.0501022 0.0351309 
1 239 20.865 22.7005 23.1789 0.0143391 -0.0101578 0.0595414 
2 240 37.0467 2.35994 28.2189 -0.0204628 -0.0215657 -0.0193716 
1 241 34.9366 28.1961 18.4247 -0.00114245 -0.0300721 -0.0253365 
2 242 11.0578 38.9258 12.7874 0.00140086 -0.0380648 -0.0161521 
1 243 2.79496 0.318291 15.3441 0.0245236 0.008212 -0.0233216 
2 244 27.3117 17.6869 40.6937 0.0138843 0.0175362 0.00688067 
1 245 26.2914 46.9972 26.5789 0.00750204 -0.0231746 -0.0202988 
2 246 28.5879 23.3126 7.27562 -0.00265413 0.0392778 0.0234859 
1 247 25.4295 41.8495 45.0411 0.00818784 -0.00894269 0.0129913 
2 248 34.2063 7.72143 24.1373 -0.0175373 0.0326737 -0.0145313 
1 249 35.9146 31.7587 5.04387 0.0150611 -0.00692569 0.0152788 
2 250 13.7773 21.254 18.7671 -0.0220452 -0.0589415 0.0238957 
1 251 6.76623 38.5815 34.1477 0.0258599 -0.0767211 0.0481944 
2 252 35.5322 36.263 32.6461 0.0181497 -0.00664296 0.0183291 
1 253 20.4714 23.7111 36.8368 0.00884996 -0.0186204 -0.0285796 
2 254 43.9284 35.4031 1.57716 -0.0296242 0.00150779 0.0241873 
1 255 33.3427 22.8777 7.59851 -0.00433677 -0.0130757 0.00464524 
2 256 44.1785 42.7055 17.0306 0.0321942 0.0337021 -0.0132914 
1 257 37.4558 35.1143 32.7287 -0.00957177 -0.0519152 -0.0201616 
2 258 29.9903 3.04193 12.4713 -0.0323859 -0.00109332 0.00962104 
1 259 32.1082 33.9561 18.5963 0.0245223 0.0252373 -0.0151385 
2 260 46.2876 20.7056 24.1636 0.0104556 -0.0106028 0.0275448 
1 261 20.202 4.30271 29.5043 -0.0388731 -0.0386024 -0.00763045 
2 262 14.5782 39.4692 0.273992 0.0134937 0.0426268 -0.0191149 
1 263 34.1706 7.43074 44.4468 -0.0193052 -0.00210773 0.0438682 
2 264 1.96561 41.602 32.6841 0.00849271 -0.00313506 0.0062113 
1 265 21.3885 5.72088 27.1513 0.0126351 0.00106153 -0.0024169 
2 266 15.3241 7.06247 28.5713 -0.0064402 0.0672995 0.0188226 
1 267 45.3058 31.3022 22.02 -0.00982455 -0.00352597 0.0104258 
2 268 30.946 9.49876 23.8602 -0.0020237 0.00519007 0.0170375 
1 269 32.4185 41.7662 46.7865 0.010909 -0.00978621 0.00184975 
2 270 43.5746 6.1039 11.0775 -0.00978265 0.000582671 0.0219694 
1 271 19.7478 4.41654 11.4538 -0.00940857 0.0107602 0.00384679 
2 272 44.392 18.1891 5.39849 -0.0257047 -0.0162537 0.00663298 
1 273 10.9024 5.27684 11.0912 0.0444281 0.034402 0.0161115 
2 274 2.4041 17.553 41.4772 -0.0090683 -0.0157364 0.0233353 
1 275 28.1166 2.25859 26.1417 0.047291 -0.000830345 0.0103227 
2 276 30.6234 11.1578 10.0758 -0.00121137 0.0163219 0.00162337 
1 277 7.85898 45.7104 27.6811 -0.0332932 -0.0327159 -0.00762778 
2 278 22.1703 14.9876 5.7614 0.0172998 -0.02429 -0.0157665 
1 279 45.0852 10.3384 23.6217 0.0313676 0.0194273 0.0143259 
2 280 37.2114 14.5113 10.5727 -0.00740466 0.0205811 0.036779 
1 281 6.81632 34.4203 47.1624 -0.00324981 0.00758068 -0.0188991 
2 282 27.8268 2.13193 46.6539 0.0378643 -0.0533966 0.0625809 
1 283 4.77619 17.9157 20.5477 -0.00351971 -0.0344252 -0.020587 
2 284 39.3815 19.0041 23.0729 0.0337473 0.00733564 -0.041482 
1 285 10.4235 43.3451 28.255 0.00139857 0.0230924 -0.0336163 
2 286 25.9909 36.0808 34.612 -0.0386074 0.00881165 -0.0223669 
1 287 1.54081 41.0049 31.364 -0.00569632 0.0169613 0.0013707 
2 288 9.38683 8.64738 24.1076 0.00187376 0.0130056 0.0536894 
1 289 13.0912 21.5294 22.9112 -0.0257863 -0.0173514 -0.0176876 
2 290 4.2291 0.439536 29.8728 -0.0255093 -0.00617409 6.30192e-07 
1 291 32.8026 28.9979 3.38232 -0.00188542 -0.00415768 0.0266263 
2 292 6.9605 31.6408 4.23655 -0.00012268 0.00455985 0.0127124 
1 293 12.1307 24.4877 36.8022 -0.00329687 0.0214993 0.0243967 
2 294 30.5968 16.089 42.0169 0.00943979 -0.0114585 0.0420921 
1 295 13.6271 27.5829 35.434 -0.0218577 0.00580007 0.0198088 
2 296 12.004 12.0579 6.13813 -0.0360661 0.0319707 0.00102395 
1 297 12.92 2.26083 14.1979 -0.00376836 0.0102586 0.00944785 
2 298 44.5785 40.1994 18.2824 0.0086539 0.0124631 0.00732434 
1 299 43.2492 44.652 45.633 -0.0581588 -0.0134794 -0.00296113 
2 300 46.2529 46.9979 12.0537 0.0174077 0.00447969 -0.0294018 
1 301 35.5841 12.5532 42.7715 -0.00614966 0.0343596 -0.0044432 
2 302 3.70981 7.62735 10.471 -0.025821 0.0094935 -0.0438934 
1 303 4.1918 0.579679 46.2541 0.00820103 -0.0112805 0.00692534 
2 304 43.4433 14.4102 40.3278 0.0272454 -0.029749 0.0369181 
1 305 42.015 22.6628 8.12254 0.0298271 -0.0465119 -0.0608535 
2 306 1.7411 26.1726 19.359 0.0218152 -0.0496574 -0.0187603 
1 307 17.4669 43.5099 32.8518 0.0254804 -0.0370683 0.00896765 
2 308 33.7948 20.5667 38.606 0.0202583 -0.00880803 -0.019494 
1 309 25.2166 24.7557 36.3995 -0.0254622 0.0217799 -0.0280394 
2 310 39.4505 15.989 23.7682 -0.00857607 0.0305484 0.024213 
1 311 26.8722 24.9617 2.63587 0.00324065 -0.0101227 -0.00695113 
2 312 44.4978 40.1733 1.8664 -0.00709248 0.0170419 -0.0189097 
1 313 2.25589 41.8112 28.7787 0.0285218 -0.00633878 -0.00299333 
2 314 10.8313 15.5127 38.0225 0.0276241 0.000843249 0.00395159 
1 315 42.7164 43.3331 16.825 -0.0160931 0.0109666 0.00790023 
2 316 23.9913 25.3921 20.162 0.0364686 -0.02052 -0.00394713 
1 317 39.2532 17.4643 39.757 0.0399499 -0.0211706 -0.00182879 
2 318 14.199 15.6447 5.33814 0.0247344 0.0318468 -0.0365994 
1 319 44.8184 42.9992 43.96 -0.0346606 -0.0286861 0.00135508 
2 320 8.51795 15.5381 5.75224 -0.015755 -0.0124969 -0.0274984 
1 321 31.3215 17.2551 25.7864 -0.0120958 0.00624331 0.000118084 
2 322 17.7658 8.95941 23.8288 0.0190031 0.0173361 -0.0140387 
1 323 22.5988 32.2446 47.4546 -0.00983768 -0.00026937 -0.0117649 
2 324 3.61056 33.5651 4.04246 0.00105615 0.00525312 -0.0108665 
1 325 36.8382 18.5024 25.217 0.0156011 0.0176875 0.023398 
2 326 23.0301 33.3065 17.93 -0.0051212 0.0155504 0.0267835 
1 327 8.28029 45.0443 11.2418 0.00152342 -0.0136913 0.0205578 
2 328 37.656 9.64792 44.0568 0.0210414 -0.0567908 -0.00616488 
1 329 2.22207 24.8503 22.3984 -0.0116292 -0.0168125 -0.0196739 
2 330 19.1195 6.1978 8.86341 0.00811795 0.00712668 0.0163834 
1 331 44.5011 39.2618 31.8113 0.0110556 -0.00368924 -0.0207784 
2 332 40.7798 16.0271 7.90116 -0.00630889 -0.00614781 -0.0351679 
1 333 37.4328 11.4041 41.3323 0.00939386 -0.0144062 -0.0292115 
2 334 23.1019 11.9259 6.24671 0.0165583 0.00348075 0.00247106 
1 335 7.91534 7.27544 24.1145 -0.0055476 -0.0164452 0.0108143 
2 336 34.6558 12.9738 7.27301 0.0184386 0.00107341 -0.0204692 
1 337 18.5251 10.3903 22.8652 0.043329 0.0187772 -0.0170768 
2 338 38.3425 19.0878 36.9176 -0.0171099 -0.0334533 -0.018017 
1 339 46.7988 29.3748 19.726 0.000652318 0.00503621 0.00805814 
2 340 26.6154 5.2383 25.179 0.00512621 -0.0386724 -0.00397374 
1 341 14.268 19.126 21.8599 0.010397 -0.0243723 -0.0250549 
2 342 20.6962 1.53442 45.1088 0.0505405 -0.00435356 -0.0427173 
1 343 40.7138 33.38 18.637 -0.00399574 -0.0120129 -0.0471709 
2 344 36.8569 15.3101 24.1279 -0.0181835 0.0305331 0.0417601 
1 345 3.52937 40.057 30.042 -0.00754471 -0.0122318 0.00351061 
2 346 11.0954 4.62288 30.4193 -0.0238618 -0.0106708 0.0275954 
1 347 3.19462 25.2791 19.7795 -0.0138847 -0.00588978 -0.00283955 
2 348 34.9921 45.1156 12.6418 -0.00556313 -0.0133748 0.0354918 
1 349 39.4067 17.6822 36.7727 -0.0245489 0.0210357 0.00866146 
2 350 24.9345 44.2703 29.6702 0.0185198 0.0130779 -0.0239686 
1 351 20.2939 3.20063 25.8191 0.0320044 -0.0227845 -0.0136616 
2 352 41.4016 18.3406 9.01878 -0.0180964 0.0118334 0.010504 
1 353 16.2386 47.4746 14.7318 0.00668207 -0.0088391 0.0502111 
2 354 10.6039 32.2861 19.5821 -0.00502581 0.0247439 -0.015675 
1 355 16.9442 32.2822 3.87563 0.0116812 -0.0102384 0.00542883 
2 356 37.0604 21.7764 19.895 -0.0315799 0.00761837 0.0243298 
1 357 7.99384 9.73463 23.78 0.0103862 -0.0204307 0.0284442 
2 358 42.097 5.56632 27.2728 -0.0087939 0.0132099 0.024065 
1 359 0.756879 6.19068 8.90627 0.00777516 0.0244767 0.00257147 
2 360 36.6351 0.0558577 27.3263 -0.00126631 0.0120333 -0.0215672 
1 361 41.065 20.3496 6.95019 0.0296945 0.000855943 0.0278347 
2 362 30.6284 22.0081 37.7722 -0.0197398 -0.02811 0.00833347 
1 363 47.292 43.6299 43.7276 0.0158586 -0.0056391 0.036488 
2 364 32.0299 27.6666 3.85982 0.0510987 -0.0126811 -0.0366891 
1 365 28.6329 47.8698 26.752 0.0147051 -0.00993141 -0.00908645 
2 366 37.0576 7.26391 10.7781 0.0036252 0.00286773 0.0230848 
1 367 23.3926 8.14739 25.7405 -0.037582 -0.0365384 0.0355931 
2 368 42.6213 40.4373 47.6769 0.00665334 -0.037007 0.00480687 
1 369 27.8796 14.8657 40.1964 -0.0357104 -0.0136097 0.0301796 
2 370 34.0671 44.0778 14.6704 -0.0337179 -0.0233519 0.00907724 
1 371 31.4767 28.2011 5.8961 -0.00927608 0.0200646 0.0173806 
2 372 11.2344 6.92729 42.4379 0.0184076 -0.00697505 -0.00598541 
1 373 14.4681 21.2157 7.59996 -0.00442635 0.0137481 -0.0713484 
2 374 38.0368 29.8025 32.9378 -0.0190813 -0.015756 0.00789258 
1 375 2.13839 42.805 0.831925 0.011888 -0.0259908 -0.00937082 
2 376 5.65357 3.71198 10.02 -0.0291518 0.019563 0.0192635 
1 377 28.4859 22.8783 21.1339 -0.00142292 0.0223306 0.00849668 
2 378 10.3372 4.59332 40.8759 -0.0104493 0.0146093 0.00446025 
1 379 30.5937 33.5542 21.7682 0.00331923 -0.0141816 -0.0153192 
2 380 1.59555 5.25795 40.8832 0.0398338 0.0160369 0.0392084 
1 381 15.9107 13.9712 26.2955 0.0124936 -0.0329144 0.0164434 
2 382 33.9213 44.1403 30.2688 0.0256568 -0.0124843 0.00341002 
1 383 17.431 46.1026 45.5951 0.00871551 -0.0240891 0.00936423 
2 384 29.8619 16.7806 6.16772 -0.00392557 -0.0188378 0.00964791 
1 385 36.0754 23.7898 24.0131 0.00705844 -0.0366797 0.00552613 
2 386 43.589 20.7565 4.88589 -0.0193793 0.0170512 0.0286762 
1 387 40.3508 1.33489 12.7392 0.0320995 0.0221525 -7.06705e-05 
2 388 32.0858 9.60665 8.24554 -0.00129923 0.0258319 -0.0370324 
1 389 43.4318 26.5051 33.873 0.00906742 -0.0294925 0.0104417 
2 390 43.7619 3.32592 11.8071 0.0270069 0.000981746 0.00780804 
1 391 18.6125 7.23377 42.4423 0.0275143 0.0148341 -0.0193928 
2 392 10.9777 35.78 16.3957 0.00220078 0.0384164 0.0198871 
1 393 36.9462 41.4667 13.3705 -0.0283745 -0.0149194 0.0437361 
2 394 6.43727 13.1921 10.4715 -0.05773 0.0245862 0.0172123 
1 395 18.4472 16.6201 9.15522 0.0118119 -0.0144481 -0.0168074 
2 396 10.1761 43.5994 33.4994 -0.00403539 -0.0398768 0.0332963 
1 397 27.2034 23.282 19.3133 -0.0361088 0.0352152 -0.0124375 
2 398 13.1826 11.5474 11.0676 -0.0265903 0.0102474 -0.0109878 
1 399 14.0901 20.1355 36.0005 0.0160686 0.0227218 0.0353538 
2 400 35.1923 38.9112 16.2905 0.0195741 -0.0164534 0.0446303 
1 401 9.85869 31.6067 2.16333 -0.00388631 0.03372 0.0134132 
2 402 9.34008 37.5198 18.5295 0.000225933 -0.0146189 0.0131918 
1 403 41.3413 44.6608 43.7108 -0.0207649 -0.0150335 0.0206783 
2 404 35.0982 7.66562 40.49 -0.00393898 0.0179409 0.0532806 
1 405 34.5022 30.6291 17.7785 0.0284098 0.0138122 0.0124234 
2 406 10.6436 32.9941 1.78828 -0.0157311 -0.0276217 -0.00542439 
1 407 14.1962 7.81611 43.8781 -0.0359815 -0.00570498 0.0234413 
2 408 44.1743 8.14518 12.4567 -0.0286941 0.006288 0.0158486 
1 409 17.8138 9.26861 41.6208 -0.0180497 0.0144573 0.0165762 
2 410 3.75552 26.6767 36.093 -0.0359905 0.0102772 -0.0268088 
1 411 36.2859 9.59623 39.6913 0.0195471 -0.0227494 -0.0136548 
2 412 33.7207 6.38261 13.5585 -0.00076752 0.0179931 0.00583684 
1 413 25.7719 13.7191 8.61631 -0.0235478 -0.0293708 0.0197512 
2 414 42.2208 43.276 46.4352 0.00105457 0.00837689 -0.0189495 
1 415 37.1547 41.2708 29.1726 0.0164706 0.02212 0.00264353 
2 416 33.903 30.1152 2.93032 0.00226403 0.00445867 0.00819647 
1 417 7.59103 0.169737 10.6649 0.0125035 -0.00899431 -0.00523857 
2 418 45.8823 32.6832 4.68283 -0.0240241 0.0169191 -0.00936331 
1 419 18.2185 27.1327 5.38191 0.0055249 0.0399687 -0.0256215 
2 420 47.8666 35.2162 3.77219 -0.0290466 -0.000280219 0.0289269 
1 421 7.7931 1.31489 14.7388 0.0143127 -0.0419949 0.0286463 
2 422 45.9529 33.656 31.3185 -0.013083 0.010099 -0.00314998 
1 423 41.9927 20.6918 36.16 0.0178398 0.0579274 0.0181717 
2 424 13.3238 8.76488 11.8134 -0.0120683 0.00700851 -0.0159783 
1 425 33.7295 44.8771 32.0796 -0.0377572 -0.00501158 0.047724 
2 426 45.3376 33.8184 47.7334 0.00385096 0.043644 0.0150767 
1 427 43.5948 16.4962 5.89503 0.0190069 -0.0441094 0.0579263 
2 428 46.8732 29.5917 36.6416 0.00182472 0.0400797 0.0185469 
1 429 29.1994 22.0618 24.2774 -0.0140191 0.0110464 0.000896234 
2 430 26.6642 29.7681 32.9345 0.0161043 0.0222252 0.021878 
1 431 15.3557 9.04505 25.851 0.0127436 0.0121049 0.0163546 
2 432 8.55962 45.4623 0.116002 0.0119518 -0.0425611 0.0129995 
1 433 26.1344 26.3088 5.74137 -0.0226623 0.0333144 -0.00798161 
2 434 21.0077 45.2755 15.6378 -0.00414451 -0.0224251 0.00459224 
1 435 23.078 35.1014 32.9269 0.0253357 0.0102057 0.0514368 
2 436 27.1321 32.379 16.3901 0.00827921 0.000313581 0.00540098 
1 437 31.3407 8.25928 8.7129 -0.0132294 -0.0222739 -0.00126971 
2 438 27.0878 2.38175 12.527 0.0202605 0.0193803 0.00757464 
1 439 32.633 46.9883 30.9059 -0.012112 -0.0351312 0.0457607 
2 440 37.0166 3.49335 14.2627 0.0119018 0.00959732 -0.0488506 
1 441 15.7857 26.5989 21.328 0.0277386 0.013912 0.0168933 
2 442 19.9845 24.0405 22.6027 -0.0172263 0.00121079 0.00892038 
1 443 18.2216 12.8967 22.0399 -0.0329644 -0.0118243 0.0339246 
2 444 16.1291 4.75587 29.1701 0.0241698 0.0112385 -0.000877615 
1 445 30.4062 21.485 36.0237 -0.0410623 0.0203988 -0.0178282 
2 446 36.3867 15.7235 6.09052 0.00376788 0.00954422 0.00270749 
1 447 18.1697 39.0388 13.1822 -0.000746639 0.0365775 -0.0363277 
2 448 16.5927 31.337 19.7201 -0.00216697 0.0261182 -0.0369507 
1 449 3.55052 5.60016 45.3778 0.015346 0.0254581 -0.00243388 
2 450 13.9268 0.919063 26.5098 -0.00610876 0.0326164 0.0132289 
1 451 29.3146 38.4949 33.7003 -0.0222834 0.0331371 -0.00948133 
2 452 35.0367 22.2174 8.08071 -0.0119167 -0.0223216 -0.0254301 
1 453 3.36693 19.2652 40.8531 -0.0191167 0.0011464 0.00609694 
2 454 36.9679 45.2224 43.4948 0.0135919 -0.00359398 0.0147224 
1 455 29.7249 24.3555 6.82667 0.0186764 -0.016508 0.045846 
2 456 13.5864 23.4358 36.9637 0.0215805 0.00640292 -0.0420816 
1 457 9.04429 37.4579 46.1281 -0.0313565 -0.0155935 0.00367145 
2 458 33.3808 27.2544 6.09894 -0.0126242 -0.00695804 -0.0117132 
1 459 0.0584547 6.01584 11.5406 0.0194354 0.0137187 -0.0359541 
2 460 21.5208 43.4413 32.4134 0.00386714 0.00604131 0.025356 
1 461 38.1153 14.6067 6.42199 0.00694625 0.00724483 -0.0511905 
2 462 21.8084 17.2221 4.77416 -0.0189253 0.0124196 -0.0339928 
1 463 40.3112 9.28424 25.3784 0.0317139 -0.0248509 0.0313562 
2 464 11.6694 9.2525 9.6557 -0.0263882 -0.00612871 0.00131743 
1 465 35.9474 46.1546 27.4506 -0.00213743 -0.0100645 -0.011509 
2 466 12.6051 29.1781 32.4192 -0.00529714 0.00717405 -0.00430744 
1 467 1.78208 19.302 6.78688 -0.0025779 0.00262007 -0.0339777 
2 468 40.352 12.3259 11.0268 -0.0574447 -0.00174015 0.00845341 
1 469 22.1982 23.2557 39.354 0.0163527 0.0097878 0.00579831 
2 470 39.5184 25.7608 38.2776 -0.0185023 0.0305279 0.00149815 
1 471 31.7554 27.1204 33.421 -0.0215377 -0.0187091 0.00348633 
2 472 1.54043 36.8632 32.777 -0.0123141 -0.0169271 -0.00796414 
1 473 7.87958 35.9014 3.02123 0.00717455 -0.0440291 0.0291736 
2 474 37.8858 7.00825 28.6527 0.0371089 -0.00744581 -0.0278202 
1 475 39.5153 25.201 5.22775 0.0275428 0.0301304 -0.0104756 
2 476 23.3024 21.7912 7.44974 -0.00153511 -0.051249 0.0145438 
1 477 21.6386 12.3957 26.0416 -0.0164575 0.0156331 -0.0260089 