ITEM: TIMESTEP
100
ITEM: NUMBER OF ATOMS
50
ITEM: BOX BOUNDS pp pp pp
-5 5
-5 5
-5 5
ITEM: ATOMS id type x y z vx vy vz 
1 1 -0.326238 -3.26795 -0.574078 0.032788 0.0491519 0.00633343 
2 1 4.24134 3.22982 3.52573 -0.0376631 0.00686545 0.00302212 
3 1 1.56125 2.72079 3.75097 0.0575073 -0.0309407 0.0421241 
4 1 2.10772 3.61116 -0.981082 -0.0321474 -0.0210752 -0.00481079 
5 1 -4.78822 -2.91358 -2.78676 0.0107915 -0.00115391 0.0264032 
6 1 -0.97927 -3.03084 -4.90022 0.00344946 -0.0348881 -0.0131657 
7 1 -4.32684 -4.96965 4.65378 0.0288273 -0.0108289 0.0577899 
8 1 0.974742 -1.96794 2.55096 0.00198955 0.029264 -0.0169558 
9 1 1.90256 -4.62136 4.4401 0.0210392 -0.0101795 0.0327018 
10 1 1.32337 -1.80786 -4.25827 0.0597373 0.000789634 -0.0303111 
11 1 -0.423377 3.75045 -4.62224 -0.00901311 0.053646 -0.0129579 
12 1 4.40303 -4.73293 -0.562292 -0.020328 0.0166709 -0.000566431 
13 1 0.384289 -4.35729 -2.85129 -0.080598 0.0313974 0.013615 
14 1 2.89032 1.05036 0.418228 -0.024287 -0.00953182 -0.0399592 
15 1 -1.68741 -3.03308 2.19399 0.004376 -0.0214876 0.00253851 
16 1 -2.4595 -2.97375 -0.902225 -0.00574227 -0.0391194 0.0716762 
17 1 -2.50829 4.57076 -2.71254 0.035713 -0.0127528 -0.00804375 
18 1 2.48445 -4.59454 0.8681 -0.0353292 -0.0643669 -0.048619 
19 1 0.539261 1.63924 0.327465 0.000419233 0.0806055 -0.00332398 
20 1 -1.38134 0.60987 1.63162 -0.0182385 0.00400055 -0.0501174 
21 1 2.2436 3.76605 -3.85014 -0.0169822 0.0619116 -0.00786245 
22 1 2.38905 -3.48328 -2.46341 0.0527256 -0.00289848 0.0234633 
23 1 -0.534005 0.197041 4.73207 0.00165656 0.0684706 0.0428823 
24 1 3.72761 -3.68213 4.93158 0.0368251 -0.0801317 0.0154744 
25 1 -2.93554 2.83446 4.27913 0.00908799 -0.00103337 0.0289741 
26 2 4.10987 1.8966 1.12609 0.014259 0.00222995 -0.0187621 
27 2 3.33861 4.65592 4.63815 -0.00226274 -0.000532004 -0.0214024 
28 2 3.02642 3.9067 0.242026 0.0101318 0.0900341 0.0185177 
29 2 2.4901 4.70941 -2.0719 0.00326313 -0.0131868 0.0216139 
30 2 -2.10122 3.56673 -4.05504 0.0479821 0.0065754 -0.0317822 
31 2 1.22016 -5.15479 -4.26777 -0.00639488 -0.0147965 0.0195758 
32 2 0.736383 -3.04303 -2.41393 -0.059023 0.0225024 -0.0440255 
33 2 1.03009 2.28122 2.21773 0.0567226 0.0576186 -0.0235929 
34 2 -0.126058 -1.26283 -4.46953 0.0134721 -0.0346021 -0.0399774 
35 2 1.92562 0.261079 0.0475824 0.0164673 0.0113571 0.0104233 
36 2 -1.5661 1.30547 3.19267 0.0183184 -0.00920471 0.048534 
37 2 -4.95426 -3.69009 -4.76295 -0.046598 -0.0240393 0.016809 
38 2 -0.765592 -2.4468 3.55331 0.048239 0.0117241 -0.0104043 
39 2 -1.77071 -2.88624 0.532423 0.00393413 -0.0066731 -0.0196896 
40 2 1.21941 2.49658 -1.01562 -0.00356578 -0.0465847 0.0281942 
41 2 -1.22472 -4.48272 -1.58329 -0.0316025 -0.0437414 0.0153451 
42 2 -0.37305 0.430019 0.56498 -0.0586877 -0.0535231 -0.0237963 
43 2 2.24202 -2.96495 -4.8466 -0.0151761 -0.0391266 0.00283924 
44 2 -2.39709 -4.73798 1.9148 0.00751796 0.0385771 -0.0402551 
45 2 0.968443 2.6312 5.15885 0.0124382 -0.0128257 0.0416365 
46 2 1.02897 -3.23237 0.0178394 0.00692748 0.0133881 0.0186223 
47 2 -4.2756 3.60989 4.10611 0.0275881 -0.0056827 -0.0579558 
48 2 1.88969 -3.21867 2.94169 -0.0578404 -0.0379538 -0.0349523 
49 2 3.78112 -3.26424 -2.06572 -0.0252331 0.0324869 -0.0350266 
50 2 -3.77956 -3.42193 -1.79962 -0.0574812 -0.00640632 0.0292068 
ITEM: TIMESTEP
200
ITEM: NUMBER OF ATOMS
50
ITEM: BOX BOUNDS pp pp pp
-5 5
-5 5
-5 5
ITEM: ATOMS id type x y z vx vy vz 
1 1 0.0451415 -2.77007 -0.490735 0.0292557 0.0644956 0.0164043 
2 1 4.12993 3.47521 3.46166 0.0229969 0.037496 -0.023088 
3 1 1.78093 2.29512 3.89175 -0.00955001 -0.038615 -0.00419144 
4 1 1.9806 3.49006 -1.13176 0.00343444 -0.00770419 -0.0248933 
5 1 -4.78548 -2.9829 -2.7333 0.0155314 -0.0151912 -0.0142497 
6 1 -0.696661 -2.87788 -5.24342 0.0531678 0.0629537 -0.0471092 
7 1 -3.95569 -5.141 5.13032 0.0433955 -0.0217149 0.0301679 
8 1 0.896031 -2.06089 2.45711 -0.0204425 -0.0501421 -0.00960263 
9 1 1.55572 -4.36371 4.3009 -0.0881479 0.039113 -0.0598934 
10 1 1.64793 -1.89365 -4.48358 -0.00274199 -0.0147043 -0.00698757 
11 1 -0.265195 3.9732 -4.73282 0.0445792 -0.0128793 -0.0156368 
12 1 4.23281 -4.58201 -0.825013 -0.00934147 0.0197759 -0.0383571 
13 1 -0.353821 -4.28299 -2.64343 -0.0437298 0.0136838 0.0196869 
14 1 3.15187 1.38039 0.250244 0.0127519 0.0259349 -0.0142182 
15 1 -1.55852 -3.35044 2.0519 0.0425664 -0.00694548 -0.0242186 
16 1 -2.86761 -3.65648 -0.357427 -0.0420149 -0.0865833 0.0503249 
17 1 -2.11582 4.40661 -2.68352 0.0202034 -0.0390673 -0.00202526 
18 1 1.54393 -4.68639 0.809039 -0.117385 0.0383223 0.0409008 
19 1 0.541416 2.11316 0.569165 -0.00278692 0.00995777 0.0629522 
20 1 -1.6716 0.69984 1.59734 -0.0321896 0.00389476 0.0302887 
21 1 2.21536 4.13085 -3.60109 -0.00871167 0.01329 0.0378558 
22 1 2.34785 -3.70244 -2.26506 -0.040981 -0.0214813 0.0117487 
23 1 -0.563506 0.774416 5.00585 -0.00117656 0.0426875 0.012435 
24 1 3.68162 -4.11531 5.06316 0.0152383 -0.0119323 0.0230393 
25 1 -2.65565 2.71907 4.50592 0.0385465 -0.0173762 0.00614426 
26 2 4.21256 1.77652 1.00901 0.0216717 -0.0107032 -0.000337213 
27 2 3.23952 4.29337 4.3565 -0.028039 -0.0457395 -0.0162228 
28 2 3.39412 4.91279 0.22024 0.0464778 0.0913405 -0.017513 
29 2 2.4559 4.64058 -2.0927 -0.00671648 0.00329798 -0.0268732 
30 2 -1.74187 3.85381 -4.42662 -0.00163182 0.0404606 -0.0328424 
31 2 0.545716 4.95154 -4.07308 -0.0906394 0.0351288 0.0166749 
32 2 0.321269 -2.78321 -2.80727 -0.0284343 0.0054006 -0.0158192 
33 2 1.64986 2.84428 2.07422 0.0570282 0.0487172 -0.00451875 
34 2 0.075367 -1.34614 -4.82401 0.032447 0.0161895 -0.0348468 
35 2 1.90346 0.0369541 0.15852 0.0139777 -0.0247867 0.0265437 
36 2 -1.38746 1.12843 3.78289 0.0159678 -0.0137935 0.0652238 
37 2 -4.65758 -3.85445 -4.27217 0.0534757 -0.0241554 0.0628736 
38 2 -0.504339 -2.55677 3.15309 -0.00164127 -0.0297098 -0.0601441 
39 2 -1.43794 -2.61389 0.30722 0.0535469 0.036653 -0.0300452 
40 2 1.16747 2.21943 -0.836849 0.0109747 0.0143768 0.000634529 
41 2 -1.48701 -4.81435 -1.74892 -0.0112615 -0.0165051 -0.029788 
42 2 -1.04928 0.0586023 0.331006 -0.0731552 -0.0135073 -0.0130023 
43 2 2.34469 -3.36574 -4.6047 0.0340426 -0.0417658 0.0263115 
44 2 -2.37245 -4.38981 1.76492 -0.019504 0.00794817 -0.00787743 
45 2 1.10465 2.52432 -4.59497 0.0159267 -0.00942872 -0.00106028 
46 2 1.35012 -3.35108 0.291064 0.0337621 -0.0267555 0.00319681 
47 2 -4.10608 3.52889 3.70003 0.0102767 -0.00689157 -0.00418628 
48 2 1.39344 -3.73093 2.54671 -0.033087 -0.0653526 -0.0172292 
49 2 3.84226 -2.80559 -2.29668 -0.0135532 0.0439874 -0.0111326 
50 2 -4.02245 -3.66133 -1.27918 -0.0143801 -0.0416745 0.0645025 
ITEM: TIMESTEP
300
ITEM: NUMBER OF ATOMS
50
ITEM: BOX BOUNDS pp pp pp
-5 5
-5 5
-5 5
ITEM: ATOMS id type x y z vx vy vz 
1 1 0.369935 -1.97054 -0.400354 0.0441126 0.0851235 -0.0117174 
2 1 4.47343 3.79676 3.11292 0.0299903 0.022137 -0.0313811 
3 1 1.7529 2.21719 3.73889 0.0194307 0.0280988 -0.0260816 
4 1 2.08038 3.58387 -1.29072 0.0144016 0.0326837 -0.00273019 
5 1 -4.57841 -3.13421 -2.77247 0.0204653 -0.00453313 0.0103209 
6 1 -0.448435 -2.06706 4.3664 -0.0262162 0.0848622 -0.0396198 
7 1 -3.41866 4.67089 -4.76411 0.0560523 -0.012045 -0.0102006 
8 1 0.890551 -2.56071 2.14569 0.0333335 -0.0181501 -0.0503848 
9 1 0.891816 -4.19997 3.90088 -0.0423021 -0.0161048 0.0427464 
10 1 1.58884 -2.11765 -4.23018 0.00346857 -0.0319603 0.0550249 
11 1 0.0384466 3.64942 -4.83919 0.0018159 -0.0183402 0.00134705 
12 1 4.28468 -4.24645 -1.24656 -0.0146659 0.033483 -0.0221945 
13 1 -0.518027 -3.92902 -2.66757 -0.0272655 0.0267137 -0.0113315 
14 1 2.99589 1.33997 0.187591 -0.0171219 -0.0260317 0.0160155 
15 1 -1.29976 -3.34549 1.5532 -0.0301493 -0.00482485 -0.0797168 
16 1 -2.98573 -4.5012 0.233124 -0.0145689 -0.0820976 0.029536 
17 1 -2.08589 3.77233 -2.92569 0.0121091 -0.0505288 -0.0228484 
18 1 0.761585 -4.56242 1.32466 -0.0419178 -0.0298035 -0.015672 
19 1 0.785731 2.13337 1.11502 0.0519663 0.00781541 0.0370311 
20 1 -1.94488 0.553708 1.91502 -0.0256661 -0.0264307 0.03476 
21 1 1.98009 4.12943 -3.80333 -0.019895 -0.000517649 -0.0734577 
22 1 1.96278 -3.55791 -2.21038 -0.0297533 0.0393638 0.00705351 
23 1 -0.253355 0.90593 -4.69895 0.0558529 -0.0126152 0.0338923 
24 1 3.96848 -4.25954 -4.67151 0.0235036 -0.0219842 0.0293691 
25 1 -2.33146 2.57779 4.33199 0.0154765 -0.00764743 -0.0371642 
26 2 4.50757 1.7325 1.03739 0.0165613 -0.00157617 -0.00664729 
27 2 2.98254 4.01004 4.42775 -0.00802831 -0.0168342 0.0227517 
28 2 3.66044 5.57577 0.196991 0.0146123 0.0421734 0.0048001 
29 2 2.42484 4.73343 -2.30863 -0.00140409 0.0100337 -0.0166838 
30 2 -2.09234 4.01462 -4.66961 -0.0451588 -0.0226895 -0.0106921 
31 2 -0.069333 5.31645 -4.01052 -0.029365 0.00606101 -0.0247809 
32 2 0.296511 -2.70794 -2.70293 0.041397 0.0414247 0.0277038 
33 2 1.92426 3.05266 2.07259 -0.00741054 -0.0171128 0.00328148 
34 2 0.600706 -1.10822 -5.25675 0.0751958 0.0331458 -0.0388464 
35 2 2.17786 -0.0100544 0.544975 0.0284751 0.0162918 0.0440892 
36 2 -1.48612 1.30469 4.18246 -0.0223043 0.0434814 0.0247599 
37 2 -4.26317 -4.30605 -3.77894 0.020046 -0.0606665 0.029387 
38 2 -0.552749 -2.77153 2.86141 0.0106272 -0.00619831 0.010861 
39 2 -0.940496 -2.61867 0.129909 0.0397549 -0.0297442 0.00988058 
40 2 1.31133 2.50995 -0.558922 0.0175347 0.025304 0.0598224 
41 2 -1.6076 -4.93163 -1.82323 -0.0210852 -0.0263624 -0.00493786 
42 2 -1.79915 0.273086 0.511787 -0.070836 0.0450041 0.0424892 
43 2 2.47609 -3.66361 -4.4968 -0.011361 -0.0129197 -0.00284483 
44 2 -2.64158 -4.36853 1.50434 -0.00907461 0.00977401 -0.0241368 
45 2 1.05961 2.51661 -4.79249 -0.034011 0.00321423 -0.0289655 
46 2 1.28877 -3.30875 -0.108381 -0.0430837 0.0159933 -0.0476482 
47 2 -4.02708 3.4989 4.02443 0.00306657 0.00265202 0.0526552 
48 2 1.0853 -4.35414 2.58464 -0.0256597 -0.0385142 0.00135579 
49 2 3.54825 -2.65096 -2.37307 -0.0237419 -0.0166347 -0.00792528 
50 2 -4.32985 -4.12913 -0.861308 -0.00720369 -0.041967 0.0176755 
ITEM: TIMESTEP
400
ITEM: NUMBER OF ATOMS
50
ITEM: BOX BOUNDS pp pp pp
-5 5
-5 5
-5 5
ITEM: ATOMS id type x y z vx vy vz 
1 1 0.695145 -1.4396 -0.648105 0.0177201 0.0120978 -0.0309784 
2 1 4.73342 3.85705 3.00543 0.0244451 -0.0085272 0.0111747 
3 1 2.14013 2.79123 3.64315 0.0478192 0.0743056 0.044494 
4 1 2.16474 3.92677 -1.15987 0.00435936 0.0259482 0.0200549 
5 1 -4.2644 -3.2588 -2.66114 0.0366566 -0.0380153 0.0172842 
6 1 -0.667333 -1.26452 3.83635 0.0097708 0.0634784 -0.0610873 
7 1 -3.31701 4.79823 -4.9365 -0.0162808 0.0166923 -0.00644191 
8 1 1.22227 -2.66712 1.7167 0.0138075 -0.0270904 -0.0325595 
9 1 0.558909 -4.24358 4.49537 -0.0170102 0.0336558 0.0157363 
10 1 1.65968 -2.37741 -3.86384 0.016831 -0.0114139 -0.00395471 
11 1 -0.520268 3.6468 -4.81242 -0.0809143 -0.00982531 -0.00259189 
12 1 3.87053 -4.01888 -1.1147 -0.0356007 0.0169185 0.0296907 
13 1 -0.876224 -3.83395 -2.73235 -0.0314232 -0.0094221 -0.000153942 
14 1 3.17482 1.17794 0.474188 0.053511 -0.00374633 0.034861 
15 1 -1.77577 -3.22111 1.06393 -0.0446287 0.0289867 -0.0190465 
16 1 -3.42695 -5.33437 -0.0768806 -0.0439168 -0.0744189 -0.041176 
17 1 -1.92237 3.57262 -2.96533 0.00753235 -0.00274857 0.0154955 
18 1 0.569423 -5.08239 0.692974 -0.00251429 -0.0413812 -0.0604417 
19 1 1.19848 2.18713 1.16347 0.00662666 -0.0191478 -0.0210438 
20 1 -2.19987 0.327677 2.40822 -0.0258003 -0.0117849 0.047239 
21 1 2.104 4.31286 -4.41578 0.0103974 0.034218 -0.0152138 
22 1 1.82532 -3.33876 -1.85567 0.000741709 -0.00638581 0.0660854 
23 1 0.351337 0.819865 -4.63494 0.0637853 0.00691007 -0.0253373 
24 1 3.98809 -4.55006 -4.3041 -0.01243 -0.02986 0.0478034 
25 1 -2.55023 2.73654 3.99054 -0.0430484 0.0177411 -0.0185432 
26 2 4.45449 1.7699 0.889233 -0.0211862 0.0124167 -0.0180223 
27 2 3.04037 3.86633 4.66922 0.0298538 -0.0191819 0.00188473 
28 2 3.55575 -4.1487 0.284693 -0.033113 0.0136815 0.0162152 
29 2 2.34848 4.76794 -2.53182 -0.0135517 -0.00608541 -0.0171977 
30 2 -1.91176 3.41533 -4.51554 0.0429946 -0.0588757 0.0302761 
31 2 -0.0994407 -4.83705 -4.46281 0.00373143 -0.0262407 -0.0356864 
32 2 0.884649 -2.21705 -2.55268 0.0497988 0.0515241 -0.00132321 
33 2 1.79119 2.70704 2.36713 -0.00308052 -0.0302364 0.0469345 
34 2 1.16139 -0.82359 4.58112 0.0185895 0.028538 0.0069101 
35 2 2.17884 0.074169 0.98919 -0.0318904 -0.00541177 0.0400836 
36 2 -1.42299 1.43247 4.3858 0.0169605 -0.0245534 0.00195843 
37 2 -4.31967 -4.6978 -3.65854 -0.0251648 -0.00660316 -0.00956136 
38 2 -0.386523 -2.60205 3.0196 0.0150254 0.0516926 0.0225948 
39 2 -0.65592 -2.6308 0.291479 0.0123511 0.0411197 0.0172122 
40 2 1.62945 2.80512 -0.0326911 0.0466748 0.050683 0.0115111 
41 2 -1.75009 -5.30544 -2.03622 0.00209888 -0.0344896 -0.034083 
42 2 -2.41029 0.735913 0.947546 -0.0509198 0.0436982 0.0561452 
43 2 2.23369 -3.73911 -4.64212 -0.0331761 -0.0104537 -0.0255096 
44 2 -2.58237 -4.32264 1.54395 -0.00803782 -0.0241184 -0.000875237 
45 2 0.688913 2.4496 -5.07397 -0.0236523 -0.00492067 -0.0219221 
46 2 1.18475 -3.25432 -0.465957 0.0455435 -0.0130707 -0.0277713 
47 2 -4.16374 3.58564 4.25024 -0.0194423 0.0183215 -0.018593 
48 2 0.90726 -4.59762 2.58322 -0.0124753 -0.0236473 -0.0133983 
49 2 3.50914 -3.03242 -2.40834 0.0168601 -0.0498612 0.00449921 
50 2 -4.10589 -4.43704 -0.988954 0.0147718 -0.0111101 -0.0436311 
ITEM: TIMESTEP
500
ITEM: NUMBER OF ATOMS
50
ITEM: BOX BOUNDS pp pp pp
-5 5
-5 5
-5 5
ITEM: ATOMS id type x y z vx vy vz 
1 1 0.718517 -1.58513 -0.923078 -0.0126873 -0.0298853 -0.0167396 
2 1 4.74859 3.73067 3.12672 -0.0311374 -0.0120958 0.00440885 
3 1 2.25022 3.25249 3.98066 -0.034297 0.00835628 -0.00710665 
4 1 2.38811 4.10786 -1.22507 0.0473391 0.0144299 -0.0360669 
5 1 -4.00733 -3.90037 -2.47248 0.0166714 -0.0535777 -0.0250079 
6 1 -0.137171 -0.650111 3.42784 0.0841322 0.0757834 -0.0172297 
7 1 -3.62033 4.86863 -4.84359 -0.0326319 -0.00877079 0.00708736 
8 1 1.12164 -3.13461 1.40774 -0.0231223 -0.0593555 -0.0363164 
9 1 0.516904 -3.64467 4.02785 -0.00878916 0.057032 -0.080083 
10 1 1.93077 -2.3285 -4.11609 0.0262879 0.0262142 -0.0312039 
11 1 -0.496313 3.41801 -5.13097 0.0379098 -0.029407 -0.0381613 
12 1 3.97897 -3.86823 -0.789616 0.0517429 0.0144611 0.0529697 
13 1 -1.06589 -4.14695 -2.73335 0.00457661 -0.0319299 -0.0168886 
14 1 3.416 0.860975 0.871163 0.0102254 -0.0439467 0.0488366 
15 1 -2.05408 -2.98396 0.9613 -0.00898197 0.0081992 -0.00389752 
16 1 -3.76712 4.15518 -0.433583 -0.0290502 -0.0223234 -0.027605 
17 1 -2.02245 3.27406 -2.7657 -0.0150558 -0.040058 0.0255467 
18 1 0.640144 4.72078 0.430573 0.0231465 -0.00517783 0.0078877 
19 1 1.25036 1.8858 1.16085 0.0156702 -0.0286646 0.0200834 
20 1 -2.4921 0.431102 2.80273 -0.0221861 0.0170511 0.0560953 
21 1 1.70364 4.73957 -4.08696 -0.0837324 0.0437249 0.0558065 
22 1 1.97736 -3.47399 -1.89747 0.0189025 -0.0135251 -0.0547966 
23 1 0.923875 1.00393 -5.15062 0.0483944 0.0311879 -0.0639485 
24 1 3.95881 -4.71727 -3.65945 -0.0026697 -0.008391 0.0740371 
25 1 -2.90583 2.63603 4.04666 -0.0235657 -0.0318196 0.0280022 
26 2 4.53369 2.185 0.810104 0.0161375 0.0542603 -0.00161307 
27 2 3.59076 3.89057 4.73427 0.062079 0.0292559 0.0210621 
28 2 3.23183 -4.19114 0.562611 -0.00555926 -0.0220247 0.0301855 
29 2 2.18558 4.631 -2.60717 -0.0164086 -0.00770358 -0.00563147 
30 2 -2.26711 2.99902 -4.22591 -0.0707889 -0.0279604 0.00418508 
31 2 -0.194979 -5.07537 -4.55351 -0.0101095 -0.00683706 -0.00459175 
32 2 1.28918 -1.78633 -2.47703 0.0419405 0.0176341 0.018997 
33 2 1.77507 2.32163 2.65508 0.00557225 -0.0401058 0.0213433 
34 2 1.04747 -0.454633 4.80927 -0.0258773 0.0344335 0.0265658 
35 2 1.81588 0.16816 1.14564 -0.0298789 0.0316125 -0.00974781 
36 2 -1.47714 0.82902 3.97622 -0.0205594 -0.0845952 -0.0787366 
37 2 -4.55182 -4.51717 -3.94303 -0.0111471 0.0357185 -0.0303387 
38 2 -0.217737 -2.14503 3.23131 0.023532 0.0101202 0.0183283 
39 2 -0.589043 -2.05209 0.468812 0.00248422 0.0578701 0.0122846 
40 2 1.90106 3.41613 -0.0309013 -0.0155141 0.0470811 0.0212076 
41 2 -1.54796 4.78221 -2.17929 0.0159677 0.0136161 0.0093042 
42 2 -2.82049 1.13531 1.69272 -0.0381642 0.0469232 0.0717894 
43 2 1.89606 -3.86269 -4.90739 -0.032803 0.000189957 -0.0193435 
44 2 -2.72544 -4.64159 1.34179 -0.0120273 -0.0208673 -0.0434309 
45 2 0.771259 2.57997 4.911 0.0348656 0.0278777 0.0168561 
46 2 1.43116 -3.48427 -0.176676 -0.0225006 -0.0215692 0.0433933 
47 2 -3.92861 3.81187 3.91668 0.0707153 0.0214599 -0.0332234 
48 2 0.78631 -4.71936 2.26646 -0.0167025 0.00885316 -0.0471794 
49 2 3.74489 -3.50885 -2.36296 0.0148551 -0.0462922 0.00185931 
50 2 -4.13961 -4.47468 -1.3327 -0.0172007 -0.0364625 0.0307651 
