ITEM: TIMESTEP
100
ITEM: NUMBER OF ATOMS
50
ITEM: BOX BOUNDS pp pp pp
-5 5
-5 5
-5 5
ITEM: ATOMS id type x y z vx vy vz 
1 1 -2.6104 4.60059 -2.49735 -0.045232 0.00265302 0.0711545 
2 1 -1.23406 -0.542417 0.697252 -0.00740218 -0.0356164 0.059027 
3 1 -3.77782 1.73208 4.69072 0.00363666 0.046258 -0.0390727 
4 1 2.80518 2.43046 -4.41726 -0.0336462 0.0385797 0.00555689 
5 1 1.95584 0.000559065 -3.32987 -0.00939099 -0.0296892 -0.0243164 
6 1 -0.459636 -2.05244 -1.26923 -0.0248167 -0.0461346 0.051044 
7 1 1.79951 -4.45175 -3.77617 -0.0413142 -0.00586721 -0.0487676 
8 1 3.43874 -3.49715 3.59146 -0.0627121 0.000743981 0.058016 
9 1 -5.2122 3.8033 4.3713 -0.0236135 -0.0511486 -0.0407978 
10 1 -1.54321 4.71202 4.02745 -0.056903 0.0953198 -0.0273971 
11 1 4.98936 -1.20029 -4.56772 0.0124895 -0.0326277 -0.00460219 
12 1 -0.0984565 0.133424 -2.1888 0.0245253 0.0193362 -0.0202389 
13 1 0.407029 -2.61999 -4.76026 0.0246734 -0.010356 0.0222046 
14 1 1.40232 -2.05004 2.49398 0.0465172 0.0179485 -0.00887818 
15 1 -0.530178 -2.41001 2.44607 0.0114807 0.00581098 -0.0339589 
16 1 2.77988 1.04776 -0.794043 0.0096258 -0.0185513 0.0369991 
17 1 -3.52344 -2.8185 2.96879 0.0123907 0.0235661 -0.0312348 
18 1 -0.0456303 2.1112 -3.44726 0.0130642 0.0316271 -0.0146505 
19 1 -5.72584 -0.10414 2.3846 -0.0473162 0.0245817 0.0306586 
20 1 -1.7197 -0.190194 4.23503 -0.0499419 0.000148678 0.0166258 
21 1 4.7034 3.3622 -3.03547 0.0136648 0.0225731 -0.0177635 
22 1 -4.18593 -1.22007 -0.234006 -0.0410898 -0.0465054 -0.0186911 
23 1 -2.35557 1.65395 -3.22052 0.0619661 -0.0385845 0.0248277 
24 1 2.54815 -0.110844 3.90229 -0.0116566 0.00793649 0.00258992 
25 1 2.85156 -1.33133 1.04343 -0.0314767 -0.033207 -0.0602594 
26 2 4.1194 5.18388 3.77462 -0.0509905 0.0162556 0.0117224 
27 2 -3.45672 2.99261 4.12862 0.0109227 -0.0921981 0.00698487 
28 2 0.861028 -3.45123 2.09538 0.0250494 0.023084 -0.0617939 
29 2 3.95691 0.0443288 4.09849 0.00868432 -0.0700803 -0.0194252 
30 2 -5.19037 -2.7602 4.24402 -0.0192169 0.021211 -0.0414869 
31 2 2.30051 0.67532 -4.57837 0.00557052 0.0363678 0.0865961 
32 2 1.40675 4.92289 3.76988 0.0292104 0.0477613 0.0393926 
33 2 2.50855 -1.06724 2.43536 0.0528548 -0.073117 -0.0401736 
34 2 2.10166 -2.94696 -3.93325 0.0364636 0.0136924 -0.0041018 
35 2 -1.4714 3.83831 -3.16266 -0.00193245 -0.0261962 0.00711164 
36 2 -0.0989313 -1.15526 1.42948 0.0229558 0.0284091 0.0251557 
37 2 -1.13742 0.756569 -3.50509 0.0075882 0.0573709 0.112759 
38 2 -3.20729 -1.33401 2.60111 0.0391957 -0.042546 0.0266316 
39 2 -3.80478 3.94589 -3.69526 -0.032026 0.00625495 -0.089382 
40 2 4.10438 -1.1396 -0.152915 -0.0331032 0.024831 0.0279469 
41 2 4.26282 2.74926 5.7261 0.0776034 -0.00386941 0.118409 
42 2 -0.341753 -1.72311 -3.15228 0.101368 0.0577089 -0.0791056 
43 2 0.783059 0.212379 -1.00183 0.0541644 -0.0336185 -0.0464765 
44 2 -3.28415 0.29051 -4.51955 -0.0236015 -0.0673134 -5.60064e-06 
45 2 -2.38121 -4.04729 3.45018 0.00851517 0.0391854 0.061089 
46 2 1.54274 2.31421 -2.73645 -0.0749808 -0.00170822 -0.0661886 
47 2 -3.17466 -1.14275 -1.53574 -0.0989755 -0.020571 0.00250563 
48 2 0.320911 -1.88696 3.92094 0.0306367 0.0327924 -0.0231273 
49 2 -3.18955 -5.36294 -1.06445 0.0643812 -0.0456933 0.0142064 
50 2 0.306149 5.59101 -4.20924 0.0121402 0.0831912 -0.0573188 
ITEM: TIMESTEP
200
ITEM: NUMBER OF ATOMS
50
ITEM: BOX BOUNDS pp pp pp
-5 5
-5 5
-5 5
ITEM: ATOMS id type x y z vx vy vz 
1 1 -2.80871 4.46027 -2.32771 0.0325583 -0.0275551 -0.0121776 
2 1 -1.44731 -0.614532 1.34972 -0.0382342 0.0160433 0.0779542 
3 1 -4.08947 1.34771 4.89783 -0.0558521 -0.0665518 0.0483193 
4 1 2.40767 2.48075 -4.14046 -0.0224052 -0.019821 0.0526898 
5 1 1.88055 -0.560506 -3.40264 0.0257519 -0.0567875 0.0123382 
6 1 -0.593899 -2.56948 -1.02754 -0.00141747 -0.054027 0.0150287 
7 1 1.47416 -4.56999 -4.4574 -0.0335449 -0.0217163 -0.0666451 
8 1 2.95721 -3.5707 4.3134 -0.013143 -0.017415 0.0718277 
9 1 4.77778 3.68345 4.09486 0.0198251 0.0235309 -0.00840297 
10 1 -1.90645 5.27529 4.0823 -0.01741 0.0200604 0.0383405 
11 1 5.1306 -1.4322 -5.00618 0.00927045 -0.00854003 -0.074508 
12 1 0.0692064 0.0869335 -2.36356 0.0370898 -0.0249938 -0.00269017 
13 1 0.658927 -2.31555 -4.4917 0.0244805 0.0916682 0.012226 
14 1 1.61218 -2.01647 2.6341 0.0207777 0.00234524 0.00407942 
15 1 -0.523426 -2.58599 2.35441 0.00244156 -0.0268467 0.0147607 
16 1 2.62764 0.681759 -0.550212 -0.0306527 -0.0584657 0.00895707 
17 1 -3.5965 -2.77997 3.01336 -0.0329991 0.00982132 0.0298804 
18 1 -0.257699 2.79232 -3.66104 -0.0784125 0.0853955 -0.0167608 
19 1 4.08823 -0.127697 2.58241 0.00118179 -0.0439816 -0.0211195 
20 1 -2.35664 -0.42601 4.50658 -0.0572233 -0.0586382 0.00901682 
21 1 5.22211 3.902 -2.92492 0.0391505 0.0444154 -0.00477873 
22 1 -4.88744 -1.64396 -0.411956 -0.105501 -0.0325411 0.00731499 
23 1 -2.36289 1.47456 -2.99481 -0.0232928 0.00239605 0.0298479 
24 1 2.20348 -0.10986 4.27384 -0.0369399 -0.00640588 0.0646458 
25 1 2.55859 -1.76594 0.107933 -0.0411374 -0.0521042 -0.0783023 
26 2 3.85725 -5.16164 3.91838 0.0125977 -0.0611806 0.0172911 
27 2 -3.21645 2.66959 3.59613 0.0126496 -0.0206445 -0.0681281 
28 2 0.999817 -3.01838 1.32492 0.0052182 0.0486402 -0.0797089 
29 2 4.23084 -0.416381 4.02506 0.0115079 0.0166916 0.0368682 
30 2 4.74457 -2.36411 3.90317 0.0162861 0.00104443 -0.0255538 
31 2 2.37625 0.974264 -4.22347 0.0196619 -0.0275306 -0.0264833 
32 2 1.83069 5.32655 4.29294 0.0382486 0.0442416 0.0537774 
33 2 3.2058 -1.49609 2.07168 0.0415729 -0.027262 -0.0348761 
34 2 2.58311 -2.77518 -4.11388 0.0452399 0.0110195 -0.0392038 
35 2 -1.4495 3.29974 -3.09499 -0.0235697 -0.050884 -0.00226135 
36 2 0.0265765 -0.989009 1.56207 -0.00534351 0.01433 -0.00805743 
37 2 -0.71322 1.38897 -2.42166 0.0184591 0.0517744 0.0931964 
38 2 -2.5154 -1.3921 2.6826 0.0973331 0.0363973 -0.0169411 
39 2 -4.10814 4.29771 -4.24014 -0.0207113 0.0594713 -0.0282726 
40 2 3.86101 -0.686793 0.171896 -0.0129288 0.0669985 0.00515744 
41 2 4.39445 2.27063 -3.75484 -0.0136802 -0.0569928 0.0201306 
42 2 0.731538 -0.974256 -3.66117 0.0824754 0.0848929 -0.0351451 
43 2 1.57731 -0.18472 -1.47516 0.101527 -0.042845 -0.0424811 
44 2 -3.47452 -0.172025 -4.75259 -0.0200414 -0.021149 -0.0269758 
45 2 -2.45174 -3.24344 3.79378 -0.0122914 0.090285 0.0183981 
46 2 1.21888 2.43966 -3.33723 0.0211994 0.0565187 -0.0411209 
47 2 -3.94539 -1.34128 -1.44764 -0.0433884 -0.0180488 -0.00964568 
48 2 0.639213 -1.54438 3.72265 0.0463604 0.0253866 0.00217416 
49 2 -2.69149 4.20981 -0.674544 0.0338943 -0.0365901 0.0405332 
50 2 -0.053808 -3.72532 -4.57707 -0.0766394 0.0361499 -0.0145138 
ITEM: TIMESTEP
300
ITEM: NUMBER OF ATOMS
50
ITEM: BOX BOUNDS pp pp pp
-5 5
-5 5
-5 5
ITEM: ATOMS id type x y z vx vy vz 
1 1 -2.01153 4.15612 -2.09568 0.080268 -0.0201517 0.0703561 
2 1 -1.48727 -0.0305399 1.7472 0.0408794 0.105278 -0.0173707 
3 1 -5.03193 0.853205 5.37254 -0.122351 -0.0290643 0.0502296 
4 1 2.76839 1.99532 -3.70908 0.0585537 -0.0661819 0.0324433 
5 1 3.2212 -0.855395 -3.01301 0.168311 -0.0277382 0.00903328 
6 1 -0.518358 -3.11248 -0.708838 0.0168769 -0.0505031 0.0534068 
7 1 0.59267 -4.77093 -4.45692 -0.0862408 -0.00037123 -0.00281255 
8 1 3.53487 -3.67053 4.7618 0.0870874 -0.0212218 0.0137574 
9 1 5.4742 3.79474 4.21105 0.105589 0.000843048 0.0183686 
10 1 -2.09961 -4.24635 4.69284 -0.0218726 0.0810408 0.0831408 
11 1 -5.0419 -1.28168 4.56884 -0.0507008 0.0280383 -0.00367019 
12 1 0.463079 0.175616 -2.39154 0.0378201 0.0343392 -0.0124935 
13 1 0.654548 -1.81183 -4.72289 -0.0229383 -0.00323991 -0.0358198 
14 1 1.95632 -1.94341 2.33481 0.0241931 0.0052717 -0.037891 
15 1 -0.521149 -2.58617 2.57163 -0.00805272 0.0347218 0.0256607 
16 1 2.43416 0.177343 -0.453602 -0.0284757 -0.0237886 0.00604834 
17 1 -3.80084 -2.65772 3.10048 0.043278 -0.0163999 -0.0374672 
18 1 -0.49297 3.32216 -3.71192 -0.00544307 0.0141692 0.0044838 
19 1 4.11445 -0.797146 2.29483 0.0059144 -0.0552763 -0.023603 
20 1 -2.40022 -1.34468 4.2003 0.0253257 -0.0945881 -0.0226759 
21 1 -4.85161 4.05921 -3.30354 -0.0252001 -0.00741738 -0.0543215 
22 1 -5.67198 -1.62973 -0.381996 -0.038491 0.0371624 -0.00666428 
23 1 -2.2886 1.62725 -2.49468 0.0298074 0.0205534 0.0655474 
24 1 1.79399 -0.267999 4.67648 -0.0471372 -0.0269081 -0.00670375 
25 1 1.90137 -2.24685 -0.32602 -0.0741802 -0.0399902 -0.0365146 
26 2 3.97681 4.38569 3.99968 0.0142783 -0.0405023 0.0048314 
27 2 -3.34527 2.44299 3.16142 -0.0345229 -0.0132566 -0.0218131 
28 2 1.08195 -2.66647 0.479949 -0.00811606 0.0103115 -0.0829383 
29 2 4.21231 0.141764 4.23803 0.00626226 0.0431852 -0.0281919 
30 2 4.94102 -2.79773 3.62608 -0.0278882 -0.039749 -9.19444e-05 
31 2 2.65008 0.577526 -4.45185 0.0483996 0.00977994 0.0406182 
32 2 1.89571 -4.2588 4.20292 -0.0413254 0.0432416 -0.0151616 
33 2 3.2662 -1.85088 1.77002 -0.00664555 -0.0437514 -0.042975 
34 2 2.82729 -2.39079 -4.38072 0.0197904 0.0767824 0.00378305 
35 2 -2.45349 3.08309 -3.24627 -0.110103 -0.0245805 -0.03391 
36 2 -0.199434 -0.754204 1.32846 -0.024531 0.0288455 -0.0314942 
37 2 -0.700018 1.32355 -1.6115 -0.00575615 -0.0446537 0.0547904 
38 2 -1.9487 -1.17221 2.91348 0.00803269 -0.0125826 0.0741419 
39 2 -4.15182 4.84011 -4.39802 0.0128843 0.048213 -0.0161594 
40 2 3.68894 -0.0521159 0.0102647 0.00652708 0.0429851 -0.00135995 
41 2 4.5191 2.02676 -3.62421 0.0252039 0.00634765 0.0105796 
42 2 0.656771 -0.308127 -3.94696 -0.0487454 0.0526209 0.0021435 
43 2 2.40691 -0.790937 -1.82615 0.0466663 -0.0768236 -0.00955511 
44 2 -3.75116 -0.312105 -4.83024 -0.00923397 -0.0322143 -0.00767517 
45 2 -2.49973 -2.82696 4.07961 -0.0174588 0.00787417 0.0281187 
46 2 0.958763 3.50544 -3.70821 -0.0404163 0.132995 -0.047339 
47 2 -4.44492 -1.62107 -1.42127 -0.069608 -0.0380752 0.0194559 
48 2 1.31519 -1.41144 3.91064 0.074073 -0.000772638 -0.0038367 
49 2 -2.44664 3.98063 -0.664188 0.0242112 -0.00939033 -0.0321026 
50 2 -0.651595 -3.51324 -4.63256 -0.0347979 -0.00540705 0.00167319 
ITEM: TIMESTEP
400
ITEM: NUMBER OF ATOMS
50
ITEM: BOX BOUNDS pp pp pp
-5 5
-5 5
-5 5
ITEM: ATOMS id type x y z vx vy vz 
1 1 -1.29083 4.1312 -1.69615 0.0692108 0.0219819 0.0187728 
2 1 -1.06771 0.777379 1.67193 0.0425136 0.0492185 -0.00456068 
3 1 4.29867 0.770189 -4.53648 0.0169418 0.00440737 -0.0583165 
4 1 3.15742 1.92184 -3.12986 0.00835195 0.0608898 0.104827 
5 1 4.57004 -1.41785 -2.918 0.0964059 -0.0891789 0.0307927 
6 1 -0.535642 -3.64479 -0.0594761 -0.072546 -0.0866985 0.0539214 
7 1 0.245625 -4.3364 -4.91896 0.013957 0.0638723 -0.0996828 
8 1 4.20977 -3.97102 4.62327 0.0630855 -0.0445355 -0.032699 
9 1 -3.60078 3.71522 4.17855 0.0720532 -0.0156276 -0.0225563 
10 1 -2.50058 -3.64051 5.78938 -0.068124 0.0194505 0.118237 
11 1 4.46646 -1.25233 4.53564 -0.0412357 -0.0290984 -0.0145444 
12 1 0.644662 0.500089 -2.61014 -0.0123205 0.0218927 -0.0295227 
13 1 0.411169 -2.28431 -4.88495 -0.00454312 -0.0611057 -0.0095685 
14 1 1.87777 -2.06774 2.13223 -0.0115251 -0.0335552 -0.0250854 
15 1 -0.662624 -1.96843 2.71448 -0.00263326 0.0733177 -0.0136611 
16 1 2.13065 0.0794167 -0.404663 -0.0164539 -0.00126563 0.0176369 
17 1 -3.50921 -3.06249 2.6694 0.00439952 -0.0510395 -0.0225855 
18 1 -0.58799 3.08592 -3.85342 -0.000268926 -0.0330479 -0.0444126 
19 1 4.24294 -1.06821 2.11619 0.0104597 -0.00746735 -0.0132471 
20 1 -2.30036 -1.4846 4.78905 -0.0210877 0.0463896 0.0767265 
21 1 -4.91672 3.76855 -3.84872 0.0182055 -0.0438701 -0.0565705 
22 1 4.06192 -1.13437 -0.367023 -0.0221447 0.0399428 0.0126831 
23 1 -2.05914 1.72733 -1.79021 0.00540164 -0.00371434 0.0722423 
24 1 1.8436 -0.0286542 4.83566 0.0363937 0.0290657 0.0316952 
25 1 1.85074 -2.38452 -1.32116 -0.0100141 -0.0447913 -0.0981227 
26 2 4.36625 3.9769 4.23199 0.0543173 -0.0300022 0.0484763 
27 2 -3.71368 2.55647 3.13369 -0.0234946 0.0342851 0.0139511 
28 2 0.487341 -2.91911 0.194653 0.00451547 0.00100063 -0.00407951 
29 2 4.24828 0.174406 3.52827 -0.0108707 -0.0332572 -0.0808057 
30 2 4.65509 -2.81912 3.70579 -0.0221502 0.0342703 -0.00458635 
31 2 2.97301 0.435134 -3.85792 -0.00202444 -0.022354 0.0621465 
32 2 1.29419 -3.77803 4.18616 -0.0742116 0.057267 0.00485501 
33 2 3.35148 -2.157 1.04312 0.00941532 -0.00509164 -0.0792568 
34 2 3.43749 -1.55179 -4.19549 0.105558 0.0752001 0.0173307 
35 2 -3.01627 2.8468 -3.353 0.0011283 -0.0195505 0.00744896 
36 2 -0.33432 -0.466224 1.06923 0.00216573 0.0357517 -0.0176246 
37 2 -0.744347 0.907236 -1.44856 0.00371736 -0.0251935 -0.0175304 
38 2 -1.59437 -1.09795 3.00713 0.0314029 0.0133122 0.0127875 
39 2 -3.94072 5.25689 -4.57444 0.0232172 0.0250575 -0.00434422 
40 2 3.80265 0.238333 0.201613 -0.0104181 0.0238744 0.026857 
41 2 4.61395 2.32562 -3.46254 -0.0203657 0.03684 0.01315 
42 2 0.103486 -0.00259453 -4.01006 -0.0402098 0.0129199 -0.0226163 
43 2 2.6876 -1.45182 -1.57086 0.0246979 -0.0163467 0.047131 
44 2 -3.92425 -0.891942 -4.83174 -0.0270038 -0.0784016 0.0143622 
45 2 -2.91429 -3.23606 4.07712 -0.0330285 -0.0389359 -0.0298953 
46 2 0.398145 4.55977 -3.96927 -0.0744738 0.021933 0.0250009 
47 2 -5.19341 -2.03407 -1.38956 -0.0575911 -0.0416573 -0.0290526 
48 2 1.66278 -1.45692 3.44121 -0.00375173 0.0211847 -0.0499213 
49 2 -2.34819 3.84813 -0.613315 0.00354181 -0.0222553 0.0309453 
50 2 -0.842166 -3.50595 -4.51828 -0.0385656 0.0547167 0.0228718 
ITEM: TIMESTEP
500
ITEM: NUMBER OF ATOMS
50
ITEM: BOX BOUNDS pp pp pp
-5 5
-5 5
-5 5
ITEM: ATOMS id type x y z vx vy vz 
1 1 -0.849198 4.27905 -1.56088 0.0241239 -0.00536853 -0.0139856 
2 1 -0.670269 1.0579 1.62509 0.031033 0.0298635 0.00286083 
3 1 4.65245 0.887165 -5.08101 0.0410533 0.0120519 -0.0390286 
4 1 3.27298 2.31133 -2.13188 0.0169403 0.00780025 0.0762766 
5 1 5.24884 -2.15183 -2.98998 0.0418045 -0.0367752 -0.0576813 
6 1 -1.19242 -4.34207 0.585343 -0.0457646 -0.0472115 0.0739626 
7 1 -0.104192 -4.77941 -5.53506 -0.0633213 -0.0780948 -0.0328372 
8 1 5.07409 -4.50646 4.28393 0.0978324 -0.0520799 -0.0191668 
9 1 -3.03828 3.79744 4.02163 0.0513406 0.0337101 -0.00808865 
10 1 -3.14995 -3.70066 -3.52546 -0.0359946 -0.0148863 0.0221517 
11 1 4.28172 -1.67207 4.40482 0.00453523 -0.0329646 0.00861963 
12 1 0.254971 0.534044 -2.89489 -0.0483461 -0.0111319 -0.0251982 
13 1 0.388694 -2.17748 -4.89237 -0.0281479 0.0699095 0.00889162 
14 1 1.93063 -2.48606 1.6882 0.01998 -0.0366416 -0.0527907 
15 1 -0.267962 -1.31929 2.28862 0.0504741 0.0825844 -0.0376316 
16 1 1.98075 -0.0231557 -0.0917827 -0.0197052 -0.0196727 0.0433184 
17 1 -3.67577 -3.4574 2.58895 -0.0422703 -0.015523 -0.0235736 
18 1 -0.652259 2.92352 -4.36085 -0.0244144 -0.00886682 -0.0325824 
19 1 4.19803 -1.09236 1.93515 -0.0213035 -0.0149238 -0.0417683 
20 1 -2.60152 -1.00897 5.19356 -0.00694856 0.0347694 0.00206294 
21 1 -4.49531 3.34336 -4.23015 0.0611485 -0.0550864 0.0278441 
22 1 3.95757 -1.23268 -0.508199 -0.00539307 -0.0452575 -0.0437092 
23 1 -2.08861 1.72638 -1.14474 0.00462426 0.0131567 0.0472665 
24 1 2.17425 0.0206475 5.20891 0.0220951 -0.00604053 0.0450461 
25 1 1.68846 -2.93069 -1.99084 -0.00362951 -0.0286185 -0.0275276 
26 2 4.78406 3.99026 4.72341 0.0127425 0.0384815 0.000653033 
27 2 -3.6993 2.77165 3.18296 0.0210598 0.00484804 -0.00463172 
28 2 0.584981 -3.03887 0.143469 -0.00337771 -0.0357974 0.0023768 
29 2 4.08931 -0.29174 3.07432 -0.0106086 -0.0268293 0.0206327 
30 2 4.38161 -2.68125 3.31112 -0.0197125 -0.0397843 -0.0758825 
31 2 2.55592 0.91419 -3.33678 -0.0828513 0.0783286 0.0361306 
32 2 0.839202 -2.98389 3.89852 -0.0449805 0.0484 -0.0444154 
33 2 3.40199 -2.02375 0.805063 0.00285548 0.0167664 0.0393645 
34 2 4.36918 -1.11011 -3.99192 0.0265492 0.0438396 0.0307163 
35 2 -2.60734 2.69306 -3.29906 0.0624727 -0.0154961 -0.00511406 
36 2 -0.14529 -0.0849787 1.02475 0.0366045 0.0222819 0.00453523 
37 2 -0.618002 0.92505 -1.80243 0.00635441 0.0294778 -0.0345931 
38 2 -1.71516 -0.707927 3.53985 -0.0167066 0.0415501 0.0611574 
39 2 -3.82381 -4.70506 -4.26748 0.00188155 -0.00955277 0.0509028 
40 2 3.47459 0.477542 0.431032 -0.0451191 0.0174312 0.0117915 
41 2 4.21143 2.56888 -3.35266 -0.0319925 0.0217577 0.0132451 
42 2 -0.0029282 0.0836118 -4.32393 0.0194288 0.0051503 -0.0383027 
43 2 2.37831 -1.04513 -1.13774 -0.0912513 0.0587165 0.0206289 
44 2 -3.87924 -1.61998 -4.52942 0.0606869 -0.0806168 0.0382867 
45 2 -2.89654 -3.49722 3.7026 0.0276952 -0.0400398 -0.033131 
46 2 -0.501559 4.33877 -3.65731 -0.0930552 -0.0449783 0.0219429 
47 2 4.73052 -2.51879 -1.57567 0.0232151 -0.0537384 -0.000868349 
48 2 1.46376 -1.01991 3.02891 -0.0304937 0.0566045 -0.0518735 
49 2 -1.88487 3.63301 -0.542894 0.0870255 -0.0176038 -0.00900113 
50 2 -1.31298 -2.57968 -4.19334 -0.0401689 0.1061 0.0427177 
