ITEM: TIMESTEP
100
ITEM: NUMBER OF ATOMS
50
ITEM: BOX BOUNDS pp pp pp
-5 5
-5 5
-5 5
ITEM: ATOMS id type x y z vx vy vz 
1 1 1.24659 0.331898 1.8622 -0.0536451 -0.0501292 0.019014 
2 1 -3.07896 -2.91274 3.39494 0.0471481 -0.0270075 -0.0207902 
3 1 -2.49169 -3.08808 -0.450637 0.00360706 -0.108021 0.0335318 
4 1 -3.04606 4.11922 -0.61551 -0.0996537 0.0689679 -0.0257411 
5 1 0.810971 3.16424 1.3522 -0.033764 0.0646572 -0.00444658 
6 1 0.753777 -3.25485 -4.75103 0.00791907 0.00826733 -0.0574083 
7 1 -2.6897 -0.270014 -0.29517 -0.032438 0.00497101 -0.00592393 
8 1 -0.941454 4.34657 -3.91795 -0.0133157 -0.0246929 -0.0183326 
9 1 4.06136 3.89047 0.202081 0.0304373 -0.0374709 0.067331 
10 1 5.55137 -1.07565 -4.49741 0.168082 0.029756 -0.0492624 
11 1 -2.89828 -2.73739 -2.88009 0.0356272 -0.0273961 -0.0216486 
12 1 0.136894 -3.4593 1.91204 -0.00497819 -0.0266852 0.0070672 
13 1 -2.45089 -0.499054 4.65801 0.0494186 0.00365437 0.0469047 
14 1 2.61158 -3.61889 1.48028 -0.0250007 0.069434 -0.00464046 
15 1 4.39532 1.27846 -2.24982 0.0475886 -0.00119582 0.0327648 
16 1 -1.07867 -1.55452 0.569324 0.00153546 0.0338348 -0.016461 
17 1 3.03846 4.21363 -4.85722 -0.0203707 -0.0111434 -0.0297783 
18 1 0.601418 1.64745 -0.744874 0.00214869 -0.0149419 0.0433695 
19 1 1.03887 4.46405 3.8154 0.0225585 0.0862655 -0.0606015 
20 1 -5.3346 1.10362 0.867551 -0.0458729 -0.0147007 0.00637484 
21 1 -0.732492 -4.296 -1.16514 -0.0440951 0.0464426 0.0359565 
22 1 -1.57127 2.2369 -2.10367 -0.00906006 -0.0485651 0.00162172 
23 1 -4.00285 0.135807 2.57367 -0.0573715 0.00770569 0.0220125 
24 1 1.15355 3.4254 -3.2347 -0.0505802 0.0194982 -0.122077 
25 1 4.96323 2.95688 2.56075 0.0813205 0.0128427 4.97354e-05 
26 2 -4.80249 4.54616 -0.563341 -0.015179 0.00742858 0.0460985 
27 2 0.837016 4.24334 2.46531 -0.0365076 0.0576341 -0.043201 
28 2 4.12257 1.49409 -0.472315 0.0140387 0.0495438 -0.113172 
29 2 0.0506353 -0.772021 1.30497 -0.0355793 0.0165457 -0.0942259 
30 2 -4.44852 -0.167184 4.26353 -0.0975861 -0.0664002 0.0379701 
31 2 1.94008 5.1666 -5.22122 0.0112458 0.0664693 -0.0134671 
32 2 -3.98234 0.539501 -0.557008 0.0225535 0.0116681 0.0133873 
33 2 3.55388 3.94694 -3.12225 -0.0127458 -0.0449061 0.00531654 
34 2 1.22212 0.558415 -1.51391 -0.00119533 -0.00397023 0.0089589 
35 2 -3.01683 -2.17315 -5.3847 0.0135679 -0.0405634 -0.0372338 
36 2 1.3512 1.47217 1.27704 -0.00208509 -0.0463969 0.00765142 
37 2 2.0451 2.44267 -4.47771 0.0112667 -0.0364514 -0.000799189 
38 2 -0.773649 1.18394 -1.74357 0.0589241 -0.0131989 0.0398572 
39 2 5.13513 1.58159 2.42806 0.0956987 -0.0626634 0.0287371 
40 2 -4.85627 -1.10973 -2.9429 -0.0672323 -0.0167917 -0.0311134 
41 2 -1.56283 3.02098 -0.274382 -0.0339539 -0.0548478 0.0101219 
42 2 -0.0669921 4.2723 -2.66505 -0.0509072 -0.0303986 0.0831994 
43 2 -2.1602 -2.08075 -1.52394 -0.0506745 0.023638 0.0328299 
44 2 3.10893 4.26617 1.57077 0.0186444 0.0561958 0.0265528 
45 2 -1.99943 -4.64991 -0.453894 0.0327854 0.0911307 0.0424068 
46 2 -2.65018 2.5296 -3.29254 0.0577827 -0.0117919 0.0485017 
47 2 -2.31958 -2.11781 1.89679 0.00662179 -0.0244024 0.0186658 
48 2 0.237727 -2.9752 0.752931 0.0452745 -0.0296046 0.0262501 
49 2 4.04749 -4.69386 3.69037 -0.0195017 -0.0281326 -0.00521047 
50 2 -0.563489 5.41502 4.81521 0.0274988 0.0659185 -0.0169695 
ITEM: TIMESTEP
200
ITEM: NUMBER OF ATOMS
50
ITEM: BOX BOUNDS pp pp pp
-5 5
-5 5
-5 5
ITEM: ATOMS id type x y z vx vy vz 
1 1 0.596249 -0.339516 1.936 -0.055884 -0.0391908 -0.00947935 
2 1 -2.54769 -3.13832 3.00938 0.0455673 -0.010854 -0.0128315 
3 1 -3.25289 -3.15868 0.230705 -0.104053 0.0639982 0.0873107 
4 1 -3.7067 4.52008 -0.892275 -0.0142607 0.00284809 -0.0420168 
5 1 0.609319 3.57706 1.2421 -0.012196 0.0161738 -0.0239121 
6 1 0.830312 -3.29414 -5.19332 0.0040574 0.0386819 -0.00479291 
7 1 -2.84377 -0.331091 -0.670936 0.0130562 -0.0283781 -0.0543325 
8 1 -1.35569 4.28874 -4.06679 -0.0616355 0.00213188 0.00896472 
9 1 4.08326 3.68758 0.691724 -0.0220849 0.00254642 0.0219743 
10 1 -3.8285 -1.17684 -4.56685 -0.0548097 -0.0414158 0.016092 
11 1 -2.57695 -2.80996 -3.01042 0.0291683 0.00629642 0.00372373 
12 1 -0.321174 -3.90739 2.18162 -0.0972442 -0.00837833 -0.0121227 
13 1 -1.43085 -0.477037 4.84424 0.147366 -0.00232227 -0.00574898 
14 1 2.44202 -3.30129 1.39755 -0.020089 -0.00437556 -0.0245549 
15 1 4.99842 1.13482 -1.93564 0.0687008 -0.0224588 0.0180875 
16 1 -0.968534 -1.67552 0.521806 0.00174476 -0.0562344 -0.00735414 
17 1 3.2486 4.15334 -5.00619 0.0534883 0.00413568 0.00151584 
18 1 0.572991 1.14022 -0.354784 0.00768803 -0.0880818 0.0380538 
19 1 1.31552 5.18451 3.36659 0.0526089 0.0336455 -0.0374632 
20 1 4.26993 0.988143 0.467166 -0.0207397 -0.00542856 -0.0700982 
21 1 -0.390173 -4.18697 -1.04032 0.0748918 -0.021505 0.0110198 
22 1 -1.66557 1.9339 -1.7043 -0.000764822 -0.00340411 0.0810448 
23 1 -4.545 -0.211593 3.21396 -0.0490318 -0.049089 0.0690363 
24 1 1.0719 3.36766 -4.18547 0.0148888 -0.0180124 -0.0540921 
25 1 5.69453 3.1989 2.80227 0.0714245 0.0135568 0.0369217 
26 2 -4.82781 4.58254 0.049413 -0.0017828 0.00585666 0.0775493 
27 2 0.253796 5.01689 1.97323 -0.0442318 0.0514345 -0.0221538 
28 2 4.00663 2.25574 -1.13707 -0.0138395 0.0796467 -0.00161338 
29 2 -0.153444 -0.257391 0.648394 -0.018523 0.057267 -0.0415685 
30 2 -5.08936 -0.710987 4.29631 -0.0350704 -0.0475358 -0.0171645 
31 2 1.81751 -4.20328 4.83344 0.0100761 0.0226425 0.00197191 
32 2 -3.99385 0.740701 -0.269734 -0.0545197 0.0286234 0.0229342 
33 2 3.34349 3.64802 -3.27163 -0.0231427 -0.000965309 -0.0430226 
34 2 1.85561 0.407661 -1.37748 0.102861 -0.020301 0.0224661 
35 2 -2.75704 -2.15267 4.71707 0.0464274 0.0345421 0.0379989 
36 2 1.29381 1.61151 1.19986 -0.0122442 0.0444698 -0.00617995 
37 2 1.86916 2.42291 -4.63103 -0.0376632 0.0154589 -0.0482944 
38 2 -0.616569 1.00347 -1.33756 -0.0214132 -0.0298327 0.0274506 
39 2 -4.12094 1.42822 2.27885 0.0435033 0.0298802 -0.0283123 
40 2 -5.20356 -1.2339 -3.37244 0.00567565 -0.00721105 -0.0361453 
41 2 -2.01786 2.56077 -0.2146 -0.0570666 -0.0327717 0.00652066 
42 2 -0.519432 4.10483 -2.15673 -0.0326344 0.0139189 0.0122696 
43 2 -2.68184 -1.998 -1.08193 -0.0508264 -0.00121477 0.0506499 
44 2 3.28966 4.7436 1.41183 -0.00924454 0.0471757 -0.0375081 
45 2 -1.68769 -4.35784 -0.0303244 0.0182973 -0.00119317 0.0386948 
46 2 -2.17509 2.61369 -3.12653 0.0280209 0.0247765 -0.0284541 
47 2 -2.21103 -2.39672 1.84655 0.0271472 -0.0277591 -0.0414199 
48 2 0.784861 -3.27971 0.65536 0.0623987 -0.0176611 -0.00175964 
49 2 4.07843 -5.17596 3.84399 0.0183298 -0.0768933 0.0399116 
50 2 -0.341467 -4.0527 4.71641 -0.0223923 0.0227604 -0.0197672 
ITEM: TIMESTEP
300
ITEM: NUMBER OF ATOMS
50
ITEM: BOX BOUNDS pp pp pp
-5 5
-5 5
-5 5
ITEM: ATOMS id type x y z vx vy vz 
1 1 0.170716 -0.45297 1.88211 -0.0331082 0.00144805 0.0195221 
2 1 -2.4056 -2.941 3.51766 0.00263737 0.0514428 0.110845 
3 1 -3.92547 -2.53519 0.921118 -0.0314469 0.0565341 0.037947 
4 1 -3.76465 4.32893 -1.0134 -0.00553807 -0.0359659 0.0353342 
5 1 0.513313 3.60003 1.02817 -0.00590394 -0.0110703 -0.00308968 
6 1 0.743439 -2.90711 5.01702 -0.0112243 -0.0142475 0.0224673 
7 1 -2.71727 -0.47803 -1.02393 0.0188072 -0.00407265 -0.0111962 
8 1 -1.89487 4.15492 -3.64082 -0.0333913 -0.00651354 0.0661621 
9 1 3.8488 3.91207 0.684338 -0.0121151 0.0422891 -0.0181381 
10 1 -4.58799 -1.70663 -4.60504 -0.0635731 -0.0631049 -0.0337372 
11 1 -2.30098 -2.64388 -2.89437 0.0246493 0.0290463 0.0090236 
12 1 -1.26015 -3.90925 1.56897 -0.0386227 -0.0732122 -0.0925088 
13 1 -0.18113 -0.596592 4.82978 0.0914239 -0.00860448 0.00908413 
14 1 2.3793 -3.61321 0.952657 0.0137635 -0.00922422 -0.0609104 
15 1 5.53916 1.17481 -1.81024 0.0453551 0.0313997 -0.0138375 
16 1 -1.04963 -2.24792 0.248194 -0.0152616 -0.043063 -0.0589215 
17 1 3.70738 4.21739 5.21997 0.054152 0.0254958 -0.0156422 
18 1 0.820189 0.34556 -0.265429 0.0329595 -0.0521838 -0.0326277 
19 1 1.94024 -4.76642 3.02396 0.0555693 -0.0156261 -0.0278312 
20 1 3.98336 1.09075 -0.238088 -0.0745822 0.0271896 -0.060342 
21 1 0.120872 -4.65302 -0.734562 0.0197618 -0.0549087 0.0351474 
22 1 -1.59677 2.24348 -1.13982 0.0289103 0.0346736 0.0297425 
23 1 -4.74244 -0.136198 3.15565 -0.0146531 0.0371204 -0.0291556 
24 1 1.09795 3.54371 -4.29966 0.0211805 0.0211337 -0.00266018 
25 1 -3.72118 3.13293 3.04087 0.0352241 -0.0166667 0.00965842 
26 2 -4.42735 4.66835 0.623065 0.0559645 0.0113893 0.0367109 
27 2 0.259287 -5.18872 2.07195 0.0172185 -0.0365347 0.0233293 
28 2 4.15434 2.79701 -0.758641 0.0311744 0.0431543 0.0678318 
29 2 -0.471682 -0.421218 0.69301 -0.0360688 -0.0779588 0.0326172 
30 2 4.50959 -1.40932 4.26535 -0.0273864 -0.0658965 -0.0390958 
31 2 2.07738 -4.23863 4.59681 0.0124323 -0.00528771 -0.0464575 
32 2 -4.64863 0.575362 -0.50773 -0.0413722 -0.0634704 -0.0512444 
33 2 3.01205 3.82375 -3.69975 -0.0708931 0.00870841 0.0117836 
34 2 2.87144 0.195377 -0.900064 0.0929231 -0.0174272 0.0766802 
35 2 -2.21774 -1.67021 5.20423 0.0538366 0.0492206 0.0546916 
36 2 1.0867 2.25193 1.08459 -0.0294286 0.0688149 -0.026609 
37 2 1.58962 2.27461 -5.54939 -0.0411649 -0.0111806 -0.0980984 
38 2 -0.889259 0.617438 -1.41537 -0.0396863 -0.0307199 -0.0354126 
39 2 -3.95581 1.83904 2.42949 -0.00298377 0.0374536 0.055117 
40 2 5.08197 -1.24311 -3.18263 0.0373166 0.0102367 0.0896264 
41 2 -2.70446 2.50207 -0.10255 -0.0760199 0.020301 0.00342345 
42 2 -0.669302 4.65089 -2.14374 -0.00261706 0.0814813 -0.00113052 
43 2 -3.14222 -1.97708 -0.605961 -0.0393133 0.00838247 0.042592 
44 2 2.73934 5.27062 1.22352 -0.0550545 -0.00133038 0.00809431 
45 2 -1.47266 -4.23075 0.210597 0.046092 0.00910313 -0.00159474 
46 2 -2.02231 2.85282 -3.5329 -0.000152239 0.00561473 -0.0399799 
47 2 -1.87122 -2.6146 1.52936 0.0120178 0.00813133 0.0254516 
48 2 1.11477 -3.0671 0.499084 -0.0346498 0.0570712 -0.0449807 
49 2 4.61607 3.92357 3.92656 0.0893296 -0.097214 -0.0242789 
50 2 -0.840992 -3.85126 4.3575 -0.0564877 0.0386481 -0.0434027 
ITEM: TIMESTEP
400
ITEM: NUMBER OF ATOMS
50
ITEM: BOX BOUNDS pp pp pp
-5 5
-5 5
-5 5
ITEM: ATOMS id type x y z vx vy vz 
1 1 -0.20991 -0.512471 2.16467 -0.0565681 -0.0228773 0.000452819 
2 1 -2.07946 -2.30168 4.66115 0.0360942 0.0855869 0.0939947 
3 1 -3.90345 -2.02893 1.03209 0.0276915 0.0407581 0.00767846 
4 1 -3.88783 3.8134 -0.128843 -0.0294625 -0.0496981 0.122721 
5 1 0.463329 3.66497 1.38229 0.0226192 -0.0313539 0.04561 
6 1 0.633044 -3.68522 -4.99982 -0.0124902 -0.118365 -0.0312907 
7 1 -2.59727 -0.466047 -0.938621 -0.00735743 0.00507818 0.021796 
8 1 -1.9185 4.37998 -2.88891 0.0245705 0.0178309 0.0744521 
9 1 3.89042 4.34639 0.563405 0.00627859 0.049046 0.0101885 
10 1 -5.2813 -2.16815 -4.60557 -0.0760408 -0.0243223 0.0105735 
11 1 -2.10852 -2.18751 -2.96636 0.0129467 0.0643657 -0.0147793 
12 1 -1.54252 -4.73032 1.53421 -0.0299363 -0.0524972 0.0376942 
13 1 0.420417 -0.468561 5.06922 0.0350441 0.0277412 0.0403045 
14 1 2.19178 -3.1382 0.151516 -0.0474754 0.0613951 -0.0762208 
15 1 -4.03719 1.47847 -1.909 0.0434951 0.0153574 0.00832329 
16 1 -1.11152 -2.51837 -0.129189 0.0120013 -0.0232241 0.00174769 
17 1 4.22679 4.37025 -5.11754 0.0471826 -0.00419203 -0.0427159 
18 1 1.06026 -0.16687 -0.678563 0.0209842 -0.0609529 -0.0304043 
19 1 2.21392 -5.03946 2.76523 -0.00740559 -0.0303812 -0.0148171 
20 1 3.50703 1.67061 -0.638902 -0.0217881 0.0592788 -0.0176962 
21 1 0.121338 -4.92782 -0.762696 0.0111462 -0.00911847 -0.0600296 
22 1 -1.38938 2.33325 -0.854767 0.00491368 -0.0212362 0.0263362 
23 1 -4.90916 0.396383 2.91248 -0.0172597 0.0621473 -0.0189369 
24 1 1.4507 3.60813 -4.57632 0.00746751 -0.0165552 -0.077284 
25 1 -3.55366 3.22512 3.13494 0.0184286 0.00148924 -0.00796113 
26 2 -4.0028 4.94399 0.873187 0.0348988 0.0433194 0.0271571 
27 2 0.298537 4.65795 2.26122 -0.0287691 0.0318604 0.034658 
28 2 4.37835 3.14592 -0.123618 0.0102626 0.0117038 0.0399326 
29 2 -0.712735 -1.09661 0.682994 -0.0115907 -0.0262198 -0.0175011 
30 2 4.48631 -1.83764 3.65184 0.0233409 -0.0240113 -0.0543532 
31 2 2.05378 -4.26285 4.13618 -0.0143414 -0.00373147 -0.0317236 
32 2 -4.56606 0.196235 -1.03546 0.0506643 0.0282967 -0.0469545 
33 2 2.28601 3.92648 -3.5965 -0.0317485 0.0216181 0.0224006 
34 2 2.87934 -0.194201 -0.104376 -0.0765226 -0.0341459 0.0793962 
35 2 -1.6253 -1.4105 -4.2123 0.0698894 0.00362434 0.0647691 
36 2 0.909728 2.32067 0.476001 -0.0225132 -0.0259533 -0.0941037 
37 2 1.08429 2.3164 3.73569 -0.0513744 0.0144771 -0.0442288 
38 2 -1.44713 0.421355 -1.6339 -0.0691538 -0.0101241 0.000578056 
39 2 -4.02972 1.43178 2.91187 0.0050888 -0.10218 0.0268121 
40 2 -4.32511 -1.27684 -2.68622 0.0796063 -0.0322954 -0.0141338 
41 2 -3.1289 2.74659 -0.596322 0.0123603 0.000313481 -0.0999834 
42 2 -0.711857 5.33399 -2.33558 -0.00768184 0.0416864 -0.0650025 
43 2 -3.24956 -1.87343 -0.194053 0.0306703 0.00960548 0.0302597 
44 2 2.57911 -5.27206 1.37403 0.0153549 -0.0462488 -0.0177117 
45 2 -0.952516 -4.26046 -0.335686 0.0100527 0.00775974 -0.00206037 
46 2 -2.11659 2.72645 -3.78479 -0.0139248 0.0109862 -0.00139669 
47 2 -2.06123 -2.54393 2.10896 -0.0499515 -0.0118853 0.0588438 
48 2 0.729073 -2.57157 -0.0918127 -0.00908879 0.0292389 -0.0731334 
49 2 5.36002 3.32427 3.9945 0.0216626 0.00794117 0.0641459 
50 2 -1.26888 -3.35132 4.08951 -0.00227113 0.0290634 0.00359624 
ITEM: TIMESTEP
500
ITEM: NUMBER OF ATOMS
50
ITEM: BOX BOUNDS pp pp pp
-5 5
-5 5
-5 5
ITEM: ATOMS id type x y z vx vy vz 
1 1 -0.948921 -0.932144 1.91269 -0.0865807 -0.0487205 -0.014589 
2 1 -1.73245 -1.73371 4.87739 0.0409249 0.0191336 -0.0144961 
3 1 -3.47663 -1.88965 1.47762 0.0545362 -0.0131171 0.0624503 
4 1 -4.10315 3.27938 0.870093 -0.00927845 -0.0471943 0.0608781 
5 1 0.890659 2.9388 1.75378 0.0366624 -0.0913118 0.0282011 
6 1 0.295157 -4.68225 -5.52452 -0.0693962 -0.055657 -0.059819 
7 1 -2.93048 -0.441673 -0.685403 -0.0516178 0.0136844 0.0280897 
8 1 -1.78474 4.32899 -2.38336 -0.0161686 -0.0326224 0.0159587 
9 1 4.00852 4.86173 0.669102 0.0213302 0.0458207 0.00264122 
10 1 4.09661 -2.25309 -4.74202 -0.0409529 0.000638451 -0.0448909 
11 1 -2.2107 -1.48179 -2.57772 0.00105369 0.078102 0.0724259 
12 1 -1.75672 -4.76022 1.89131 -0.00963683 0.0402157 0.0228757 
13 1 0.551376 -0.2144 -4.37838 -0.0114341 0.0140075 0.0728078 
14 1 1.96365 -2.57437 -0.390556 0.0262105 0.027095 -0.0222364 
15 1 -3.39609 1.75248 -1.9378 0.0756426 0.0364479 -0.0427819 
16 1 -0.929729 -2.68734 0.0720539 0.00996948 -0.00526915 0.0192758 
17 1 4.46509 4.43272 4.55544 -0.0232836 0.0423908 -0.0142427 
18 1 1.1574 -0.796524 -0.687232 -0.031111 -0.0348652 0.0117182 
19 1 1.91368 4.87954 2.63706 -0.0409674 0.0232271 -0.0294266 
20 1 3.34453 2.21821 -0.562821 -0.0122058 0.0584117 0.0257145 
21 1 0.245157 -4.8336 -1.6267 0.00867342 0.0351908 -0.0935804 
22 1 -1.37848 1.84101 -0.713375 0.0146485 -0.0672111 -0.00225114 
23 1 -5.48547 0.54986 2.75308 -0.0477775 -0.00771924 -0.00947042 
24 1 1.45019 3.2 -5.45464 0.00480825 -0.058331 -0.0656711 
25 1 -3.47481 2.92702 3.24526 -0.0009868 -0.0580393 0.0549565 
26 2 -3.65542 5.10251 1.24763 0.029924 -0.0336339 0.0463703 
27 2 -0.156825 4.9549 2.49657 -0.0469228 0.0078309 0.0150174 
28 2 4.47712 3.09137 0.163914 0.0141431 -0.0100525 0.0284835 
29 2 -0.784821 -0.995041 0.57795 0.00767189 0.0213089 -0.0202876 
30 2 4.76817 -1.95976 3.4103 0.0188475 0.000941292 0.00447338 
31 2 1.88536 -4.49472 4.02481 -0.0137203 -0.0487724 0.00226182 
32 2 -4.14438 0.680851 -1.19552 0.00688656 0.0257238 0.0194343 
33 2 1.98819 4.11587 -3.54779 -0.0406394 0.00786244 -0.0249354 
34 2 1.93377 -0.466535 0.486775 -0.0895503 -0.0338452 0.0462139 
35 2 -0.596714 -1.16624 -3.67057 0.117679 0.0485759 0.0338333 
36 2 0.431226 2.26643 -0.455212 -0.071205 0.0114476 -0.0814615 
37 2 0.709128 2.65908 3.43656 -0.0172189 0.0539936 -0.0335451 
38 2 -2.00911 0.504204 -1.50704 -0.0274653 0.0213425 0.0148163 
39 2 -3.49335 0.8842 3.03527 0.0482924 -0.0228551 -0.00453469 
40 2 -3.33279 -1.92069 -3.29589 0.0972515 -0.0807531 -0.0917459 
41 2 -2.67604 2.8379 -1.50676 0.0790916 0.0573636 -0.0376323 
42 2 -0.714307 -4.42344 -3.09264 0.00730106 -0.000175266 -0.0491383 
43 2 -2.72121 -1.80496 -0.146888 0.0457866 -0.00974742 -0.0012507 
44 2 2.56121 4.37592 1.22971 -0.0299763 -0.0278224 0.00970191 
45 2 -1.08024 -4.33213 0.132009 -0.0059969 -0.0243672 0.0516278 
46 2 -2.19241 3.12962 -3.57416 0.00620989 0.0625849 0.0287772 
47 2 -2.77626 -2.54736 2.41797 -0.0646811 0.014154 0.0192664 
48 2 0.640784 -2.27747 -1.11845 -0.0308175 0.033178 -0.124457 
49 2 -4.38787 3.52694 4.53236 0.0638281 -0.00617232 0.0120578 
50 2 -0.951315 -3.18244 4.61024 0.0522181 0.0175817 0.0721159 
