ITEM: TIMESTEP
100
ITEM: NUMBER OF ATOMS
50
ITEM: BOX BOUNDS pp pp pp
-5 5
-5 5
-5 5
ITEM: ATOMS id type x y z vx vy vz 
1 1 0.255753 0.544309 -0.766775 -0.00646828 -0.0423652 -0.045041 
2 1 4.68926 -0.752373 4.36389 0.0161019 -0.0378243 -0.00220868 
3 1 1.34978 -1.6746 -0.516744 0.0171601 -0.013459 0.0303828 
4 1 -3.85567 0.831353 -0.165295 -0.00523663 -0.0246663 -0.0458471 
5 1 4.11426 -3.40243 -2.38661 -0.0171129 -0.0128262 -0.00329271 
6 1 -3.52661 -1.57089 -0.563974 0.0571793 -0.0216311 0.0374562 
7 1 3.43953 -4.79962 -4.91961 -0.0531973 0.0271931 -0.0384637 
8 1 3.80448 -0.867185 0.102166 0.0187133 0.0209169 -0.00810257 
9 1 -2.6689 1.04933 2.74558 0.0407915 0.0108014 0.0392536 
10 1 3.96245 0.887253 -1.4669 0.00945043 -0.0208606 0.0128927 
11 1 -0.839963 -1.02328 -2.42538 0.0392953 -0.0359908 -0.0124345 
12 1 -1.81904 1.51436 -3.14316 -0.0171154 -0.0199282 -0.0240798 
13 1 2.20735 -0.988784 -2.82417 -0.0536739 -0.0215039 0.00300404 
14 1 2.8188 0.74082 3.79776 0.0217363 0.000933455 -0.0484152 
15 1 0.848978 -0.739381 1.80056 -0.0015428 0.0216109 0.0363947 
16 1 -1.92118 -1.37519 3.41405 0.0123627 0.0424476 0.00137924 
17 1 -1.39669 -2.23787 0.776394 -0.0193393 -0.0142391 0.0412714 
18 1 -4.40961 -1.40778 2.15282 -0.0243038 0.051377 0.0293619 
19 1 3.94003 1.43476 -3.94882 0.00890816 -0.0156921 -0.0116915 
20 1 -0.297826 1.06957 2.01608 -0.05047 0.0345442 0.00724667 
21 1 5.65826 -0.587127 -2.87557 0.0780091 0.0434468 0.00224634 
22 1 4.79378 1.10748 1.6513 0.00687359 0.0379172 0.0241064 
23 1 1.44932 2.24383 -4.26454 0.0211645 -0.0169673 -0.0143868 
24 1 0.427446 -2.19881 -5.08963 -0.0512388 -0.0103073 -0.0904787 
25 1 -0.993421 0.0479931 4.7241 -0.0150391 0.0247244 0.0115142 
26 2 1.1825 0.639497 2.98004 -0.0449935 -0.0248849 -0.0253268 
27 2 -4.47848 -2.35837 -1.84324 -0.0302783 0.00512519 -0.00679171 
28 2 -1.82669 -0.682593 -0.652873 -0.0246234 -0.000204722 -0.0189473 
29 2 1.87172 -3.42355 -4.89276 0.0319496 0.0609935 -0.00124191 
30 2 -0.652348 2.34415 -3.79264 -0.0254656 -0.0455568 0.0381373 
31 2 -0.73286 -1.91594 4.11085 -0.0140796 -0.0269777 0.0230095 
32 2 0.870521 0.387381 0.802669 -0.060457 -0.0216225 0.0223222 
33 2 -1.29134 0.270092 3.27334 -0.00269142 -0.0123877 -0.00963541 
34 2 4.24175 -0.187112 2.97315 -0.000489137 -0.025295 0.0256329 
35 2 1.57279 1.902 -2.65058 -0.0527374 -0.00263248 -0.0250913 
36 2 5.10481 -1.8165 -4.82538 0.0166847 0.0129496 0.0190067 
37 2 2.53684 2.14285 -5.10486 0.0282173 -0.0160402 -0.0331793 
38 2 -4.66149 1.47546 -4.81275 -0.00683213 0.0108678 -0.00429209 
39 2 0.213444 -2.04822 0.739803 -0.00485638 0.0963121 0.0234161 
40 2 -4.59548 0.030292 -1.56699 0.016884 0.0290026 -0.000548886 
41 2 -2.6057 -1.64173 2.15005 -0.0152138 -0.0410773 0.0567816 
42 2 1.14009 -1.10832 -4.16343 0.0737114 -0.052208 -0.00470719 
43 2 -4.85024 -1.53944 0.281829 0.00364129 0.00369362 0.0559659 
44 2 -1.83445 0.0972914 -4.07215 -0.0456415 0.0300061 -0.027676 
45 2 3.83032 0.708679 0.487997 -0.0172047 -0.0450318 -0.0801358 
46 2 2.81058 -1.51257 -1.50838 -0.00847521 -0.0264939 0.0479179 
47 2 3.65187 0.609551 -3.01762 0.0209617 0.00681016 -0.00121063 
48 2 0.617386 -0.624995 -1.75973 0.0702841 0.043547 -0.00141201 
49 2 3.78103 -4.5666 -3.15207 0.034799 -0.00755693 -0.0296809 
50 2 -3.43161 1.46095 1.56966 0.0238978 0.0410107 0.0256192 
ITEM: TIMESTEP
200
ITEM: NUMBER OF ATOMS
50
ITEM: BOX BOUNDS pp pp pp
-5 5
-5 5
-5 5
ITEM: ATOMS id type x y z vx vy vz 
1 1 0.222054 0.479134 -0.854165 -0.00304717 0.0274629 0.0209166 
2 1 4.75959 -0.904104 4.53431 -0.00415167 0.00134643 0.0413276 
3 1 1.40509 -1.76055 -0.233226 -0.0130844 0.000298122 0.0314794 
4 1 -3.5141 0.67302 -0.324619 0.0777811 0.00017186 0.0429858 
5 1 4.1524 -3.19576 -2.38169 0.0197869 0.0352224 -0.0126613 
6 1 -3.31829 -1.82855 -0.458201 -0.018025 -0.0275391 -0.0100118 
7 1 2.81698 -4.27666 -4.92635 -0.0379609 0.0451298 0.0374768 
8 1 3.98314 -1.15156 -0.121638 0.028965 -0.0673316 -0.0239084 
9 1 -2.69154 1.32166 3.14405 -0.0569631 0.0472303 0.0332975 
10 1 3.83727 0.737424 -1.5551 -0.0168769 0.00147864 -0.0392393 
11 1 -0.504195 -1.31822 -2.55588 0.020465 -0.0232517 -0.0120992 
12 1 -2.11502 1.38491 -3.36704 -0.0571434 0.0042349 -0.000987774 
13 1 1.91099 -0.983588 -2.86104 0.0266724 0.0183091 -0.0100728 
14 1 2.70607 0.805358 3.255 -0.0356899 0.00289117 -0.0424204 
15 1 0.857881 -0.68935 2.15406 -0.0111471 -0.0085713 0.00761706 
16 1 -1.90357 -1.22539 3.34018 -0.0182473 -0.00457616 -0.00658891 
17 1 -1.39859 -2.09165 1.31323 0.0166708 0.037153 0.0580502 
18 1 -4.49442 -1.0673 2.25536 0.016039 0.022635 0.036303 
19 1 4.04762 1.61981 -4.39159 -0.00370429 0.01898 -0.0367268 
20 1 -0.37784 1.30702 2.06 0.0268566 0.00155232 -0.0088614 
21 1 -3.77463 -0.446695 -3.04563 0.0301501 -0.00936306 -0.0296971 
22 1 4.81198 1.47342 1.94621 0.0143805 0.0301188 0.0209247 
23 1 1.32374 2.01322 -4.13564 -0.0242158 -0.0272902 0.00693243 
24 1 0.813172 -2.4595 4.45019 0.0856651 -0.0242252 -0.00785739 
25 1 -0.736625 0.419904 4.97239 0.0455741 0.0366787 0.0241944 
26 2 0.959617 0.425719 3.10869 0.00659763 -0.00207563 0.049425 
27 2 -4.64756 -2.36264 -1.94139 -0.00359299 0.00343357 0.0125333 
28 2 -2.1852 -0.838939 -0.940254 -0.0387826 -0.027969 -0.0345007 
29 2 2.20981 -3.23398 -5.18169 0.0134438 -0.00486572 -0.0677228 
30 2 -0.826897 1.98374 -3.68013 -0.0030132 -0.0280116 -0.02819 
31 2 -1.09535 -2.07812 4.29037 -0.0128758 -0.0109593 0.0249017 
32 2 0.0484059 0.639024 0.602942 -0.0893143 0.0863016 -0.0336559 
33 2 -1.45484 0.361473 3.07079 -0.0199729 0.0216585 -0.00947863 
34 2 4.31452 -0.255297 3.06003 0.00659703 0.017056 -0.00401266 
35 2 1.24965 1.88152 -2.76023 -0.00236027 -0.00535716 0.0194346 
36 2 -4.56656 -1.7432 -4.41214 0.0440009 0.0143795 0.0510676 
37 2 2.95812 1.80284 4.4719 0.0267773 -0.043887 -0.0360004 
38 2 -4.60514 1.40381 -4.94216 0.0379864 -0.0225648 -0.0273445 
39 2 0.149143 -1.55881 1.00659 -0.00774393 -0.0246948 0.0334689 
40 2 -4.21755 0.519246 -1.59463 0.0420543 0.0434845 -0.0489137 
41 2 -2.95762 -2.00833 2.35195 -0.0235639 -0.0233084 -0.000336613 
42 2 1.53128 -1.32121 -4.26332 -0.00837707 0.0122863 -0.0207874 
43 2 -4.62371 -1.39151 1.02188 0.017464 0.0172923 -0.0026543 
44 2 -2.38642 0.103956 -4.08795 -0.0537738 -0.0349127 0.00429566 
45 2 3.83193 0.59891 -0.123907 0.00332573 0.00902241 -0.00817372 
46 2 2.79291 -1.91233 -0.832038 0.010465 -0.0529812 0.0742935 
47 2 3.71675 0.330649 -2.89805 -0.00906778 -0.0352482 -0.023196 
48 2 0.953556 -0.583256 -1.84383 -0.0199812 -0.0322288 -0.00294723 
49 2 4.02649 -4.68785 -3.67317 0.00731196 0.000468669 -0.0588925 
50 2 -3.49897 1.57655 1.71805 -0.032354 -0.0150644 0.017014 
ITEM: TIMESTEP
300
ITEM: NUMBER OF ATOMS
50
ITEM: BOX BOUNDS pp pp pp
-5 5
-5 5
-5 5
ITEM: ATOMS id type x y z vx vy vz 
1 1 0.269396 0.832137 -0.925434 0.00786374 0.0430268 -0.0298806 
2 1 4.63886 -0.712842 5.07514 -0.0202162 0.0364103 0.0512769 
3 1 1.22733 -1.81274 -0.0585326 -0.0100146 -0.0189368 -0.00331882 
4 1 -2.79705 0.588681 0.0576023 0.0600091 -0.0197239 0.0275084 
5 1 4.465 -2.89076 -2.72068 0.0517433 0.0266862 -0.0496509 
6 1 -3.61821 -2.05733 -0.658001 0.00393603 -0.00854094 -0.014565 
7 1 2.78842 -4.27622 -4.3918 -0.0370392 0.00545845 0.0154036 
8 1 4.32552 -1.65546 -0.267961 -0.00104982 -0.0324861 -0.010378 
9 1 -3.28804 1.64161 3.54776 -0.0429711 0.00392105 0.0496313 
10 1 3.89456 0.867371 -1.80966 0.0266194 0.0154849 -0.00520589 
11 1 -0.469866 -1.46592 -2.70122 -0.0153689 -0.00598412 -0.0228873 
12 1 -2.74646 1.48355 -3.36539 -0.0601827 -0.00459386 -0.00881237 
13 1 2.36352 -0.644259 -3.11622 0.00756798 0.0298225 -0.0372142 
14 1 2.45653 0.742347 3.10264 0.00334043 -0.0129417 0.011166 
15 1 0.729906 -0.860498 2.33722 -0.00386824 -0.0264736 0.0493435 
16 1 -2.16629 -1.19777 3.81947 -0.0208539 0.0113123 0.10303 
17 1 -1.38064 -1.83899 1.5975 -0.0260061 0.00499314 0.00230585 
18 1 -4.27099 -0.950326 2.48328 0.0142619 0.00591315 -0.0207655 
19 1 4.18197 1.62908 -4.72622 0.0323983 -0.014184 -0.0393566 
20 1 -0.290472 1.28956 2.06235 -0.0259665 0.00709311 0.01294 
21 1 -3.7027 -0.745271 -3.1773 0.0124673 -0.0282656 0.0332369 
22 1 4.78975 1.56998 2.06137 -0.0454855 -0.0166014 0.00187829 
23 1 1.10249 1.7809 -4.01195 -0.0103659 -0.0134483 0.0385633 
24 1 1.1668 -2.15845 4.58555 -0.011127 0.0683338 0.0216162 
25 1 -0.431153 0.528122 4.98568 0.00739384 -0.0438888 -0.0433214 
26 2 0.962377 0.415667 3.39201 -0.0289311 -0.00972604 -0.00908627 
27 2 -4.67874 -2.27329 -1.4691 -0.0385986 -0.00342284 0.03582 
28 2 -2.41772 -1.13502 -1.16698 -0.00140481 -0.0277574 -0.00746295 
29 2 2.38169 -3.29436 3.83104 0.0344171 -0.0285654 -0.089002 
30 2 -0.852083 1.56893 -4.25415 0.00404108 -0.0268678 -0.05361 
31 2 -0.890211 -2.07347 4.41536 0.0419629 0.0159446 -0.00463515 
32 2 -0.791537 1.5543 0.439329 -0.0722591 0.071838 -0.0139388 
33 2 -1.6763 0.571661 3.0957 -0.0162137 0.011691 0.0113 
34 2 4.37992 -0.0499526 3.05582 0.0109466 0.00982324 8.29449e-05 
35 2 1.46081 1.72134 -2.37435 0.0296043 -0.0328622 0.0371093 
36 2 -4.35622 -1.56515 -4.08071 -0.0298475 -0.0105269 0.00387537 
37 2 3.02011 1.53176 4.24743 -0.00241057 0.00114241 -9.51321e-05 
38 2 -4.14196 1.22035 -5.30009 0.0373966 -0.00268935 -0.0375362 
39 2 0.189821 -1.87296 1.34496 0.0133856 -0.0165777 0.0266692 
40 2 -3.68895 1.03118 -2.13964 0.0532626 0.0613238 -0.0590307 
41 2 -2.80495 -1.97831 2.39331 0.039377 0.0352347 0.0100173 
42 2 1.20436 -1.09307 -4.37725 -0.040785 0.0307039 0.012898 
43 2 -4.46472 -1.20682 0.40488 0.0426271 0.0244754 -0.0461971 
44 2 -2.49825 -0.170896 -4.0079 0.0415981 -0.0106578 0.00609691 
45 2 3.793 0.609857 -0.0740594 -0.0140702 0.00073113 -0.0106002 
46 2 2.8284 -2.43138 -0.173657 -0.00842713 -0.0385459 0.0570888 
47 2 3.49408 -0.0577644 -3.44225 0.00346004 -0.0229295 -0.06215 
48 2 0.516728 -1.01882 -1.61869 -0.0379517 -0.039135 0.0465838 
49 2 4.07816 -4.51639 -4.05591 0.0436506 0.0259935 0.00278897 
50 2 -3.79046 1.3141 1.87117 -0.00191537 -0.0310245 0.0104703 
ITEM: TIMESTEP
400
ITEM: NUMBER OF ATOMS
50
ITEM: BOX BOUNDS pp pp pp
-5 5
-5 5
-5 5
ITEM: ATOMS id type x y z vx vy vz 
1 1 0.378781 1.24375 -1.26552 0.01057 0.0281931 -0.0194033 
2 1 4.62003 -0.596254 -4.82312 0.0401609 -0.0324413 -0.043931 
3 1 1.16177 -2.07799 -0.117154 -0.0104861 -0.0259642 0.00535864 
4 1 -2.353 0.43328 0.307289 0.0227596 -0.002926 0.0191673 
5 1 5.0567 -2.83151 -3.32815 0.0404773 -0.0440924 -0.0408864 
6 1 -3.29692 -2.08792 -0.633224 0.0132904 -0.00607903 0.0203937 
7 1 2.60705 -4.20463 -4.55537 0.0215093 0.0105647 -0.0387575 
8 1 3.94562 -1.81946 -0.205289 -0.0464609 -0.0068636 0.00927572 
9 1 -3.11045 1.48611 3.42678 0.0500179 -0.0434472 -0.0567903 
10 1 4.19998 0.976845 -1.6714 0.032102 0.00609914 0.0158495 
11 1 -0.689893 -1.3212 -2.87192 -0.0209317 0.0401552 -0.000113435 
12 1 -2.89373 1.32813 -4.00086 0.0193327 -0.0233668 -0.0928234 
13 1 2.03121 -0.432692 -3.36363 -0.00422156 0.0346777 0.00452075 
14 1 2.54411 0.554087 3.42959 -0.00216224 -0.0208209 0.0516771 
15 1 0.636576 -1.28945 2.75877 -0.0210498 -0.0578279 -0.00162714 
16 1 -2.34685 -1.11719 4.87164 -0.0292385 -0.0104284 0.0708059 
17 1 -1.54314 -1.88855 1.56522 0.00733147 -0.00862623 0.00145496 
18 1 -4.11935 -0.759652 2.02671 0.0259563 0.0321707 -0.0520729 
19 1 4.46302 1.62619 -5.15377 -0.000156273 0.0246512 -0.0361893 
20 1 -0.85599 1.37861 2.23199 -0.0653338 0.00369405 0.0157508 
21 1 -3.26487 -0.876193 -2.64638 0.0578837 0.00549459 0.0538046 
22 1 4.41662 1.11161 1.90141 -0.0104444 -0.0632564 -0.0387446 
23 1 0.957934 1.69128 -3.53993 -0.0295149 -0.00773952 0.0274721 
24 1 0.955751 -1.78056 4.7455 -0.0124009 0.00120398 0.0447305 
25 1 -0.472742 -0.0487094 4.34234 -0.0119823 -0.0136658 -0.0526052 
26 2 0.659029 0.257655 3.0844 -0.00589878 -0.0167269 -0.0368009 
27 2 -5.27591 -2.4936 -1.63332 -0.0427812 -0.0154093 -0.0275795 
28 2 -2.22263 -1.29368 -1.37194 0.0271075 -0.00409367 -0.0485437 
29 2 2.502 -3.42303 3.39719 -0.00779213 0.000504583 0.00326565 
30 2 -0.504282 1.58946 -4.56602 0.0629373 0.0106481 -0.0152299 
31 2 -0.362905 -1.68759 4.27484 0.0504421 0.0564611 -0.0252862 
32 2 -1.3597 1.82082 0.338466 -0.0423577 -0.0204008 3.45961e-05 
33 2 -1.67687 0.62822 3.30104 0.00223844 0.0146039 0.0322983 
34 2 4.36747 -0.058528 3.02812 -0.0231897 -0.00609189 -0.00315221 
35 2 1.6227 1.19143 -2.14746 -0.000346633 -0.0632647 0.00136745 
36 2 -4.74468 -1.7684 -4.07606 -0.000122256 0.0152051 -0.0171662 
37 2 2.99767 1.75077 4.38537 -0.00632624 0.0298646 0.0116843 
38 2 -4.20084 1.1885 4.98136 0.00620787 -0.00553835 0.0606011 
39 2 0.191117 -1.85083 1.48701 -0.0213483 0.00981916 -0.00153511 
40 2 -3.57991 1.49402 -2.36791 -0.0192717 0.0233517 -0.00261242 
41 2 -2.62238 -1.4441 2.65045 -0.0106175 0.0550367 0.0359158 
42 2 0.784173 -0.625408 -3.98358 -0.0558248 0.0445639 0.0375988 
43 2 -3.92678 -0.909753 0.415722 0.056313 0.0185891 0.022677 
44 2 -2.02489 -0.512139 -3.94304 0.0372759 -0.0550532 0.0242938 
45 2 3.62792 0.638618 -0.366123 -0.0107167 -0.0023935 -0.0287194 
46 2 2.66115 -2.57193 0.293524 -0.0228522 0.00919099 0.0341309 
47 2 3.76564 0.115003 -3.82746 -0.0173286 0.056513 0.0151413 
48 2 0.271245 -1.28092 -1.16702 -0.0117942 -0.0160126 0.0259744 
49 2 4.34679 -4.05512 -3.82077 -0.00927383 0.0520321 0.0268607 
50 2 -3.8278 1.0906 1.9432 -0.0116878 -0.0107576 0.00846464 
ITEM: TIMESTEP
500
ITEM: NUMBER OF ATOMS
50
ITEM: BOX BOUNDS pp pp pp
-5 5
-5 5
-5 5
ITEM: ATOMS id type x y z vx vy vz 
1 1 0.429943 1.24676 -1.0584 0.00863498 -0.0286183 0.0493381 
2 1 4.87467 -0.63376 -5.37045 0.00861281 0.0265565 -0.0584532 
3 1 0.888249 -2.19823 0.0649436 -0.045559 0.00460223 0.0199364 
4 1 -2.44876 0.369621 0.231883 -0.0401951 -0.0231307 -0.043922 
5 1 -4.65321 -3.17126 -3.31663 0.00386508 -0.00414411 0.0231149 
6 1 -3.26582 -2.12866 -0.426856 0.00376158 -0.00808759 -0.0019177 
7 1 3.1277 -3.99767 -5.1404 0.0609743 0.0268474 -0.0792291 
8 1 3.59912 -1.86243 -0.358409 -0.0230958 -0.000399309 -0.0411862 
9 1 -3.12657 0.966796 2.99515 -0.0416271 -0.0429416 0.00605311 
10 1 4.61237 1.01361 -1.80885 0.0473343 0.000515269 -0.0344173 
11 1 -0.615185 -0.811283 -2.55982 0.0373445 0.0398311 0.0636099 
12 1 -2.48632 1.14483 -4.46834 0.0588231 -0.011941 -0.014725 
13 1 2.35612 0.020831 -3.03448 0.0423821 0.0318656 0.0497328 
14 1 2.34292 0.436781 3.92209 -0.0334968 0.00179842 0.0319664 
15 1 0.664177 -1.75431 2.60996 0.0383935 -0.0279038 -0.0127291 
16 1 -2.7782 -1.51577 4.93049 -0.0383609 -0.0475091 -0.0174291 
17 1 -1.5771 -1.87854 1.81761 -0.0361295 0.0138169 0.04821 
18 1 -3.77267 -0.601629 1.91242 0.026814 -0.0220509 0.0173857 
19 1 4.38334 1.89988 4.73237 -0.0013915 0.0181816 0.0145296 
20 1 -0.995798 1.45071 2.08671 0.0385911 0.013244 -0.0402958 
21 1 -3.01106 -0.391281 -2.42588 -0.0135501 0.0821405 -0.0126541 
22 1 4.32478 0.583512 1.34454 -0.0277332 -0.0380505 -0.0628007 
23 1 0.67059 1.5485 -3.62487 -0.000654445 -0.0303078 -0.000759052 
24 1 0.947808 -1.87299 5.51885 -0.0190124 -0.00151947 0.0740987 
25 1 -0.456269 0.262023 4.16301 0.0383504 0.0335534 0.0164895 
26 2 0.918637 0.177206 2.73462 0.0434696 0.00627264 -0.0302857 
27 2 4.57339 -2.41723 -1.62765 0.0103135 0.0253882 0.0247592 
28 2 -2.10997 -1.53487 -1.60707 -0.00955921 -0.0467844 0.0259893 
29 2 2.28064 -3.34228 3.91471 -0.0359757 0.0190002 0.0841523 
30 2 -0.00541401 1.78176 -4.74391 0.00836065 0.0294767 -0.0580977 
31 2 -0.050238 -1.45828 3.95317 0.0232537 -0.0127876 -0.0125311 
32 2 -1.51262 1.41529 0.573244 0.0240645 -0.037243 0.0494898 
33 2 -1.73347 1.0114 3.73776 -0.0129097 0.0633653 0.0409338 
34 2 3.97637 -0.114928 3.10471 -0.0424018 -0.00465758 0.0193311 
35 2 1.39548 0.809665 -2.27028 -0.0542651 0.0138056 0.00627277 
36 2 -4.161 -1.54919 -4.332 0.0930958 -0.00180534 -0.0256749 
37 2 2.85196 2.0003 4.31533 -0.0162188 0.0173627 -0.021245 
38 2 -4.02629 1.04307 5.07716 0.00225074 -0.0207365 -0.0496102 
39 2 -0.269905 -1.94414 1.1798 -0.0504995 -0.0276161 -0.0383169 
40 2 -3.79443 1.415 -2.3829 -0.0234264 -0.0432866 0.0148415 
41 2 -2.78575 -1.08509 2.93356 -0.0152827 0.0204215 0.0285919 
42 2 0.458623 -0.489833 -3.69765 0.00666394 -0.0176446 0.00994654 
43 2 -3.23381 -0.901114 0.387711 0.0749422 -0.00469197 -0.010402 
44 2 -1.93105 -0.840384 -3.63553 -0.0284024 -0.00228492 -0.0176904 
45 2 3.7229 0.464375 -0.352611 0.0392727 -0.0293677 0.0208254 
46 2 2.40956 -2.36457 0.529729 -0.0255847 0.0276958 0.0170424 
47 2 3.4544 0.555171 -3.6726 -0.0144625 0.0316644 0.00254069 
48 2 0.297662 -1.37583 -1.15177 0.0180347 -0.000229692 -0.0203828 
49 2 3.77334 -3.95601 -3.89513 -0.0641601 -0.00673484 -0.0230367 
50 2 -4.03829 1.06244 1.93246 -0.0436492 -0.0049311 -0.0313898 
