ITEM: TIMESTEP
100
ITEM: NUMBER OF ATOMS
50
ITEM: BOX BOUNDS pp pp pp
-5 5
-5 5
-5 5
ITEM: ATOMS id type x y z vx vy vz 
1 1 2.66859 0.279641 -0.507377 0.108056 -0.0403134 -0.043969 
2 1 5.03822 -2.4284 -3.66129 -0.0284856 -0.0303046 -0.00248804 
3 1 2.79452 -2.47039 3.52207 -0.0141 -0.0598639 0.0173733 
4 1 0.0343023 -4.96787 4.41683 -0.0875312 0.0347881 -0.00393537 
5 1 -2.95107 -1.8826 -3.32508 0.0235921 0.0612351 -0.00406063 
6 1 -3.89082 4.30165 2.14761 -0.018714 -0.0208928 -0.0180522 
7 1 3.54328 3.20445 1.96365 -0.0598171 -0.0558285 0.0499811 
8 1 4.46051 2.87767 4.03352 -0.0314954 -0.0723506 -0.0206896 
9 1 -4.03706 -0.130039 4.37784 0.0114276 -0.0111208 0.00841669 
10 1 1.70855 3.06596 3.80837 0.0329464 0.00241398 -0.039421 
11 1 -4.10537 -4.83919 -2.10351 0.0598498 -0.00604649 0.00749061 
12 1 1.0022 -1.70849 -3.17549 0.0242551 -0.027721 0.0648543 
13 1 -2.7579 -2.10175 3.28513 -0.0626578 0.0290499 -0.0393978 
14 1 3.03953 0.472218 -4.80392 0.00925093 0.00085739 -0.0193696 
15 1 3.70437 -5.08688 -4.02397 0.0103471 -0.0259114 0.0203034 
16 1 0.749276 1.52083 -2.386 -0.0207034 0.030703 0.0224471 
17 1 -2.56836 4.12106 -4.23101 0.0237633 0.0450274 0.0417508 
18 1 0.447579 -0.785886 4.40613 -0.0226964 0.00274522 0.0769646 
19 1 5.22203 1.4565 -3.36326 0.0990619 -0.000137322 0.0310988 
20 1 -1.99168 0.409289 -5.05014 0.0301216 0.0621268 -0.0253578 
21 1 -0.990736 -3.51006 -2.08156 -0.001409 -0.0383443 -0.000667498 
22 1 -2.22851 1.37937 -2.62871 0.0274075 0.0266507 0.0526267 
23 1 -2.96751 -2.70067 0.630466 -0.0743823 0.0437688 -0.0595705 
24 1 3.02261 0.654001 2.20263 -0.0285736 -0.0831718 0.0641624 
25 1 0.680905 -2.96464 1.52028 -0.0350459 0.00356092 -0.0652729 
26 2 3.17251 3.76228 3.24078 -0.0251219 -0.0264555 0.0713098 
27 2 2.04202 1.52928 3.60312 -0.046547 -0.0508413 -0.00201344 
28 2 -3.35728 0.913522 -4.20647 0.0107259 -0.027992 -0.0511773 
29 2 -4.77403 4.07698 3.97756 0.0339606 0.034584 0.0414876 
30 2 4.16819 -3.84367 -3.46918 0.0346538 -0.0136877 -0.0680932 
31 2 4.21683 1.11152 2.84709 0.0319239 -0.0384924 0.0116962 
32 2 -4.34582 -1.58209 4.32638 -0.0564607 -0.07155 0.0062498 
33 2 3.69817 1.0961 0.504581 0.0701085 0.0156885 -0.030147 
34 2 0.613689 -0.367436 -3.79669 0.0108638 -0.000477864 -0.02741 
35 2 1.16504 0.131685 -0.989514 0.00390355 0.0347595 0.0376794 
36 2 0.596985 -2.36759 4.20639 0.0483982 0.000609328 -0.00238562 
37 2 4.50155 0.610109 -4.03445 0.0131107 -0.0230164 0.0122629 
38 2 1.64477 -0.864552 1.76998 -0.0331783 0.0617637 0.0063118 
39 2 -4.34941 3.64764 -3.61048 0.0202715 0.0442762 -0.0888352 
40 2 -1.4698 3.02674 -3.06079 -0.0172372 0.00201257 -0.00484199 
41 2 -5.06482 4.73774 1.00808 0.0236534 0.0888454 0.0148687 
42 2 -3.98067 -3.66409 -1.19955 0.0019971 0.0545001 -0.01375 
43 2 -3.55044 -3.28039 -3.68835 -0.0691465 -0.0672514 0.0253231 
44 2 0.446669 -3.58106 -2.95574 -0.0595325 0.00910234 -0.0521772 
45 2 -1.83167 -2.21033 -2.25511 -0.0424862 0.0123079 0.0642582 
46 2 -1.96041 -2.98279 2.10964 -0.0235379 -0.068674 0.024385 
47 2 2.84563 -1.85441 4.69332 0.0178388 0.0794877 0.0382647 
48 2 2.26723 -3.23254 1.53172 0.00710743 0.00302267 -0.0612669 
49 2 -1.8788 -1.00326 -4.90742 0.0143862 0.0645115 -0.0658237 
50 2 0.0519387 4.51283 3.12334 0.0558776 0.0120468 -0.00139345 
ITEM: TIMESTEP
200
ITEM: NUMBER OF ATOMS
50
ITEM: BOX BOUNDS pp pp pp
-5 5
-5 5
-5 5
ITEM: ATOMS id type x y z vx vy vz 
1 1 3.54222 0.0319682 -0.708755 0.0630318 0.000706127 -0.0018648 
2 1 -5.26918 -2.79912 -4.02765 -0.00222483 -0.019014 -0.0676071 
3 1 2.41784 -2.9569 3.67001 -0.0574728 -0.0332883 0.0264553 
4 1 -0.669349 -4.31584 4.2867 -0.0386675 0.0812808 -0.0352895 
5 1 -2.39252 -1.46153 -3.39738 0.066782 0.022163 -0.00123873 
6 1 -4.26326 4.33376 2.16113 -0.0385384 0.0224567 0.037819 
7 1 3.12664 2.65736 1.91941 -0.0198455 -0.0616531 -0.0410422 
8 1 4.44695 2.22573 4.07753 0.0243073 -0.0433319 0.0264727 
9 1 -4.39827 -0.226749 4.69133 -0.0643515 -0.00946426 0.0451809 
10 1 1.42217 2.98884 3.53034 -0.0943801 -0.0120008 0.00229098 
11 1 -3.74226 -4.50822 -2.19168 0.00356435 0.0787821 -0.00431192 
12 1 1.11099 -2.04537 -2.74948 -0.000239777 -0.0295089 0.0157801 
13 1 -3.27174 -2.12147 3.13495 -0.0409718 -0.0358403 0.00220105 
14 1 3.10066 0.237974 -5.03999 -0.00498266 0.00547027 -0.010413 
15 1 4.16399 4.46493 -4.07858 0.0849841 -0.0619609 -0.0348376 
16 1 0.643441 1.4764 -2.06128 0.0168618 -0.0388446 0.0412604 
17 1 -2.68018 4.3165 -3.80531 -0.0308036 -0.00554778 0.0211437 
18 1 0.277403 -1.08631 4.98771 -0.0148339 -0.0586316 0.0138855 
19 1 -3.89743 1.60242 -3.37744 0.0498677 0.0162673 -0.0482815 
20 1 -1.59421 1.17777 4.80694 0.0344897 0.0644045 -0.0134904 
21 1 -1.07975 -3.6563 -2.21401 -0.0262891 0.0132748 -0.0132469 
22 1 -1.81841 1.86648 -2.22936 0.0534368 0.0568265 0.0430546 
23 1 -3.67973 -2.54253 -0.148469 -0.053553 0.0175523 -0.0577203 
24 1 2.54331 -0.243184 2.78238 -0.0547142 -0.0773087 0.061037 
25 1 0.633112 -2.81376 1.08351 0.0222869 0.0227382 -0.0243385 
26 2 3.0651 3.32594 3.94572 0.0250705 -0.0644236 0.0553761 
27 2 1.75184 1.11818 3.75545 -0.000674747 -0.0201025 0.0287627 
28 2 -3.06523 0.799568 -4.51971 0.0199915 0.0099133 0.00124088 
29 2 -4.28776 4.25318 3.75929 0.0476505 -0.00610213 -0.0875546 
30 2 3.86831 -4.03456 -4.01349 -0.10238 -0.0364419 -0.0459982 
31 2 4.59322 0.959352 3.36662 0.0248204 -0.00830067 0.077654 
32 2 -4.54689 -2.11525 4.27827 0.0135921 -0.0253347 -0.0109226 
33 2 4.12262 1.19149 0.0983712 0.0254451 0.00362957 -0.0447382 
34 2 0.778366 -0.220354 -3.82833 0.0103514 0.022993 0.0425177 
35 2 1.39816 0.698482 -1.02048 0.0362304 0.0704246 -0.0408452 
36 2 1.00926 -2.44946 4.03869 0.039283 -0.0157229 -0.0236482 
37 2 4.35688 0.476051 -4.0052 0.0113742 0.0257008 0.00798737 
38 2 1.44806 -0.245806 1.91201 -0.01697 0.0417158 0.00153037 
39 2 -4.03749 3.8696 -3.82129 0.0237126 -0.0121024 0.0526163 
40 2 -1.79353 2.90832 -3.15336 -0.0410362 -0.0114132 -0.0142403 
41 2 5.31616 5.38448 1.31446 0.0383851 0.0565628 0.0253707 
42 2 -3.90773 -3.22991 -1.04817 -0.013605 -0.006955 -0.00212453 
43 2 -3.63954 -3.79925 -3.42698 0.0507085 -0.0369064 0.026078 
44 2 -0.17499 -3.34288 -3.36071 -0.0577322 0.0387941 -0.0330259 
45 2 -2.04994 -2.03767 -1.6824 0.00658347 0.0230359 0.0327656 
46 2 -2.4535 -3.35813 2.25506 -0.0623151 -0.00590782 0.0173452 
47 2 3.05875 -0.941567 5.10877 0.00719327 0.0226603 0.0198465 
48 2 2.06918 -3.21148 1.10422 -0.0462905 0.00830416 -0.0277902 
49 2 -1.74336 -0.604701 -5.71115 0.0258841 0.0207923 -0.0841382 
50 2 0.687161 4.49151 3.29321 0.0569832 -0.0103409 0.0430357 
ITEM: TIMESTEP
300
ITEM: NUMBER OF ATOMS
50
ITEM: BOX BOUNDS pp pp pp
-5 5
-5 5
-5 5
ITEM: ATOMS id type x y z vx vy vz 
1 1 3.86811 0.166516 -0.808227 -0.00150155 0.0266409 -0.0254109 
2 1 4.68455 -3.05558 -4.87625 -0.0286455 -0.0313349 -0.0848804 
3 1 2.19408 -3.60955 4.0133 -0.00166017 -0.0967258 0.0527165 
4 1 -0.826639 -3.47148 3.85293 -0.00626909 0.0848314 -0.0475395 
5 1 -1.75773 -1.30308 -3.2796 0.0596381 0.0203212 0.0192912 
6 1 -4.62851 4.86031 2.20426 -0.025991 0.0681715 -0.0132172 
7 1 3.02975 1.81704 1.47706 -0.00472186 -0.109316 -0.0507167 
8 1 4.72339 2.18187 4.3656 0.0542836 -0.0154687 0.00479793 
9 1 -4.99603 -0.367016 5.09028 -0.0454516 -0.0300181 0.039128 
10 1 0.769613 2.82672 3.79427 -0.0232345 -0.0176724 0.0393602 
11 1 -3.86428 -4.14795 -2.36291 -0.0171166 -0.0123762 -0.0659625 
12 1 1.05687 -2.22175 -2.81615 -0.0104839 -0.003382 -0.0261929 
13 1 -3.67999 -2.58552 3.20208 -0.056643 -0.0306975 0.0130087 
14 1 2.86813 0.923925 5.15137 -0.0297513 0.077677 0.0433564 
15 1 4.97001 4.0482 -4.57331 0.0480823 -0.0121512 -0.0543627 
16 1 0.817388 0.946722 -2.18663 0.0323475 -0.0788047 -0.0517396 
17 1 -2.72712 4.25249 -3.79872 0.0117882 -0.00466001 -0.00809754 
18 1 0.209999 -1.52953 4.93065 -0.00967729 -0.0188708 -0.00900321 
19 1 -3.70193 1.97347 -3.85213 -0.0016703 0.0467057 -0.018456 
20 1 -1.49532 1.42823 4.70386 -0.0170882 -0.0178161 -0.00243512 
21 1 -1.51372 -3.31884 -2.31338 -0.051087 0.0450179 -0.0165542 
22 1 -1.43432 2.46625 -1.74423 0.0121367 0.072781 0.0312108 
23 1 -3.92104 -2.09619 -0.155314 -0.011538 0.0169807 0.0053705 
24 1 1.81789 -0.823707 3.36418 -0.0882456 -0.0363953 0.0466832 
25 1 0.591741 -2.33441 0.968873 -0.0202665 0.0727185 0.000655759 
26 2 3.47242 2.66357 4.41414 0.0405319 -0.0423041 0.0496206 
27 2 1.83121 0.97285 4.12168 -0.00842148 -0.022821 0.0348634 
28 2 -2.76761 0.825919 -4.45368 0.0534239 -0.014114 -0.00197918 
29 2 -3.79933 3.80568 3.54463 0.035237 -0.0702881 0.0374015 
30 2 3.05606 -4.36318 -4.54419 -0.0444744 -0.018651 -0.0710068 
31 2 4.78953 0.534633 3.99189 0.010862 -0.0497318 0.030439 
32 2 -4.41157 -2.15627 4.40898 0.00461967 0.0116301 0.0405015 
33 2 4.40131 1.35701 -0.109853 0.0357378 0.0308897 0.0145725 
34 2 0.605288 -0.213389 -3.27521 -0.037908 -0.0209142 0.0641047 
35 2 2.1832 1.18967 -1.10607 0.0978147 0.0314946 0.00698166 
36 2 0.863684 -2.35945 3.87905 -0.051572 0.0213801 -0.019089 
37 2 4.74997 1.06043 -3.88693 0.0405633 0.0753367 0.0186905 
38 2 1.33264 -0.073013 1.73088 0.00517544 -0.00536513 -0.0181696 
39 2 -4.40712 3.45694 -3.2258 -0.058372 -0.0438501 0.041253 
40 2 -2.06881 2.82465 -3.34994 -0.00367182 -0.00964101 -0.00981901 
41 2 -4.56431 -4.02264 1.33875 -0.0183691 0.0651402 -0.0102846 
42 2 -4.48685 -3.36647 -0.996204 -0.0791083 0.0471435 0.0586999 
43 2 -2.84608 -4.05859 -3.664 0.0913244 -0.0382875 -0.0329867 
44 2 -0.6349 -2.69824 -3.698 -0.0292796 0.0942997 -0.0331002 
45 2 -1.84926 -1.84505 -1.66909 0.0203413 0.00860003 -0.0238744 
46 2 -2.69929 -3.25881 2.55464 0.0471691 0.000788532 0.0311199 
47 2 3.05884 -1.56025 -4.94859 0.00202289 -0.0701736 -0.024991 
48 2 1.87271 -3.21779 0.895268 -0.0029485 -0.00679578 -0.0158574 
49 2 -1.25494 -0.464244 3.65643 0.0710289 0.0124177 -0.0354479 
50 2 1.01383 4.42689 3.78083 0.0110396 -0.00233966 0.0473471 
ITEM: TIMESTEP
400
ITEM: NUMBER OF ATOMS
50
ITEM: BOX BOUNDS pp pp pp
-5 5
-5 5
-5 5
ITEM: ATOMS id type x y z vx vy vz 
1 1 3.92553 0.736615 -1.18106 0.0764263 0.0665409 -0.0486342 
2 1 3.9058 -3.22509 -5.43458 -0.102251 0.00505815 -0.0313079 
3 1 1.6124 -4.5763 4.33688 -0.100961 -0.0771805 0.00723098 
4 1 -0.979829 -2.6583 3.25313 0.0114289 0.0903269 -0.05957 
5 1 -1.25594 -0.616427 -3.07661 0.0241167 0.111908 0.036265 
6 1 -4.72643 5.29066 2.09202 -0.00674869 0.0223716 -0.0273161 
7 1 2.93345 0.59111 0.877833 -0.0214645 -0.124253 -0.0510075 
8 1 5.38365 1.55064 4.04668 0.0553867 -0.0699867 -0.0393987 
9 1 -5.33172 -0.797857 -4.56364 -0.0219929 -0.0444732 0.00911809 
10 1 0.896669 2.76793 4.18876 0.0334229 -0.00237334 0.0353197 
11 1 -4.30584 -4.16121 -2.79828 -0.0629475 -0.00122047 -0.0293789 
12 1 0.876045 -2.13331 -3.11492 -0.02593 0.0103462 -0.0253091 
13 1 -3.95561 -2.69083 3.12377 0.0125569 0.0179305 -0.0142333 
14 1 2.81337 1.77991 -4.48624 0.0165261 0.0770412 0.0230187 
15 1 5.02567 3.98124 -5.03401 -0.0343178 -0.0268532 -0.0303907 
16 1 1.47244 0.366573 -2.41095 0.0782256 -0.036225 0.00344089 
17 1 -2.30787 4.13089 -4.01707 0.0580897 -0.0232423 -0.0463738 
18 1 -0.183403 -1.31673 4.96552 -0.0424497 0.0694567 -0.0417248 
19 1 -3.62237 2.04465 -3.54794 0.0166981 -0.0127626 0.0645798 
20 1 -1.60171 0.974664 4.52017 0.0144397 -0.0607392 -0.0507648 
21 1 -1.89896 -3.1032 -2.70516 -0.0233176 0.00352565 -0.0659013 
22 1 -1.48987 3.17579 -1.74192 -0.0166271 0.0635349 -0.0260841 
23 1 -4.07803 -2.26284 -0.0183493 -0.0244033 -0.0396702 0.0282199 
24 1 1.20306 -0.79965 3.48094 -0.0303877 0.0446868 -0.0255674 
25 1 0.741522 -1.58768 1.09282 0.0509059 0.0698778 0.0208238 
26 2 3.75046 2.6075 4.87552 0.0245863 0.0306499 0.0164811 
27 2 1.4561 0.692553 4.51716 -0.04131 -0.0160692 0.0610651 
28 2 -2.38979 0.545887 -4.2951 0.0150646 -0.0462857 0.0481226 
29 2 -3.83089 3.14499 4.26765 -0.0238824 -0.064474 0.0983345 
30 2 3.39044 -4.50824 -5.09175 0.107237 -0.0313281 -0.0346013 
31 2 4.85187 0.206743 3.97838 0.00285709 -0.0358323 -0.0131599 
32 2 -4.39446 -2.15528 4.88281 -0.00669337 -0.028994 0.0418039 
33 2 4.71392 1.45117 0.347495 0.0122355 -0.0220515 0.0608477 
34 2 0.230739 -0.747256 -2.79451 0.00279294 -0.0440262 0.0503605 
35 2 2.70408 1.24444 -1.25206 -0.0309728 -0.00723484 -0.0372799 
36 2 0.405992 -2.39899 3.59672 -0.0285647 -0.0190404 -0.0227757 
37 2 5.05449 1.39961 -3.7592 0.0194398 -0.0373607 0.00950488 
38 2 1.57101 -0.311809 1.5548 0.042277 -0.0365439 -0.0239374 
39 2 -4.63446 3.66526 -3.20442 0.0194083 0.0954218 -0.0223803 
40 2 -1.98892 2.89413 -3.2353 0.0145605 0.0134193 0.037251 
41 2 -4.75003 -3.20435 1.61699 -0.000231758 0.0936414 0.0741714 
42 2 -5.02218 -2.78696 -1.06764 -0.033673 0.0581296 -0.0645938 
43 2 -2.2184 -4.48861 -3.55565 0.0339614 -0.0182016 0.053589 
44 2 -0.730726 -1.90383 -4.05136 -0.0281486 0.00915797 -0.017811 
45 2 -1.81031 -1.79217 -1.85978 -0.0170599 0.00222173 -0.00791751 
46 2 -2.04469 -3.26522 3.03835 0.00676289 -0.0124099 0.0448868 
47 2 3.06476 -2.1983 -5.2127 -0.0119627 -0.0386954 -0.0211653 
48 2 1.53229 -3.05226 0.778711 -0.0626318 0.0427785 -0.00851045 
49 2 -0.440089 -0.305424 3.63072 0.0732432 0.0212927 0.02711 
50 2 0.972296 4.29314 4.18785 -0.02372 -0.0417907 0.0355496 
ITEM: TIMESTEP
500
ITEM: NUMBER OF ATOMS
50
ITEM: BOX BOUNDS pp pp pp
-5 5
-5 5
-5 5
ITEM: ATOMS id type x y z vx vy vz 
1 1 4.88656 1.54471 -1.6082 0.0756556 0.0703887 -0.0299274 
2 1 3.41004 -3.43323 4.18291 -0.0158554 -0.0218611 -0.0313908 
3 1 0.892342 -4.62032 4.42238 -0.0804313 0.015388 0.00120385 
4 1 -0.970061 -1.97262 2.58283 -0.00614009 0.0232952 -0.061203 
5 1 -1.26275 0.231295 -2.61396 -0.00537601 0.0507259 0.054584 
6 1 -4.86507 -4.42325 1.80036 -0.0167211 0.0389078 -0.00669076 
7 1 3.02143 -0.361008 0.318876 0.0672779 -0.0503827 -0.0769896 
8 1 -4.22427 1.12567 3.95393 0.0129947 -0.0286573 0.0202264 
9 1 4.58062 -1.17229 -4.76838 -0.00223577 -0.030344 -0.0374504 
10 1 1.18646 2.1502 4.44832 0.0178285 -0.109686 0.0214124 
11 1 -4.99095 -4.15913 -3.12237 -0.0799408 0.0591249 -0.0312263 
12 1 0.460313 -2.14125 -3.38907 -0.0501614 0.00175239 -0.0201085 
13 1 -3.60912 -2.32351 3.41726 0.0392498 0.0392135 0.077594 
14 1 3.1369 2.15346 -4.11384 0.0430013 -0.00476578 0.0588166 
15 1 -5.24201 3.78161 4.9714 0.0340984 0.00353196 0.0236656 
16 1 2.01285 -0.0607181 -2.3855 0.0249552 -0.0682684 -0.0267722 
17 1 -1.91637 3.99269 -4.56353 0.0179702 -0.00880267 -0.0383614 
18 1 -0.468411 -0.966599 4.96493 -0.000495153 -0.027301 0.0637019 
19 1 -3.4738 1.94992 -3.21088 0.0238045 -0.0104563 -0.0221012 
20 1 -1.61418 0.517438 4.09771 -0.0399146 0.00442021 -0.0276937 
21 1 -2.02124 -2.81124 -3.44675 -0.026291 0.0387651 -0.0611667 
22 1 -1.6212 3.95556 -1.88383 -0.0131804 0.106778 -0.00967956 
23 1 -4.53852 -2.64875 0.176304 -0.0609301 -0.0161077 -0.00292617 
24 1 1.44151 -0.146286 3.19899 0.0648065 0.0687542 -0.0121953 
25 1 1.05109 -1.43843 1.07812 0.00724766 0.00470384 -0.00650675 
26 2 3.58841 2.8634 4.67833 -0.0802532 -0.0238011 -0.0377312 
27 2 1.32586 0.895079 5.3427 0.0105594 0.0513838 0.0895446 
28 2 -1.98486 0.194469 -3.95098 0.0644363 -0.0173459 0.00140265 
29 2 -3.70077 2.41999 5.0544 0.0412383 -0.080353 0.05964 
30 2 4.43997 -4.93558 4.4179 0.0848628 0.00775858 -0.0769953 
31 2 4.87751 -0.297045 3.87251 0.0166521 -0.0458658 -0.00123479 
32 2 -4.55559 -2.57846 5.21185 -0.0255983 -0.0425634 0.027392 
33 2 4.57332 0.97872 0.693165 -0.0317951 -0.063954 0.000434758 
34 2 0.796455 -0.730552 -2.20892 0.0600163 0.00455488 0.042296 
35 2 2.42752 1.01508 -1.64194 0.0207222 0.000346475 -0.0137716 
36 2 0.482878 -2.4732 3.48257 0.00489953 0.00481943 -0.0123958 
37 2 -4.89662 0.717102 -3.32224 -0.00918345 -0.0628647 0.0833167 
38 2 2.10789 -0.352468 1.64318 0.04132 0.0176464 0.0514194 
39 2 -4.30612 4.79748 -3.39592 0.0434803 0.0611365 -0.0224334 
40 2 -1.93935 2.79751 -2.96107 -0.00936424 -0.0336409 0.0101851 
41 2 -4.65163 -2.53599 2.19496 0.00420739 0.0259405 0.0120335 
42 2 4.85734 -2.32858 -1.69565 -0.000100194 0.0263997 -0.0409867 
43 2 -1.93503 -4.63486 -2.93745 0.0444273 -0.0193072 0.05798 
44 2 -1.01762 -2.14819 -4.22027 0.00827541 -0.0252195 -0.030514 
45 2 -2.15074 -1.82688 -1.91471 -0.0371639 -0.00444182 -0.00866767 
46 2 -2.46852 -3.32659 3.34288 -0.0457518 0.0210586 0.0146471 
47 2 2.49182 -1.86374 4.83383 -0.0568372 0.0453761 0.0224444 
48 2 0.776809 -2.58943 0.649492 -0.0896664 0.00502692 -0.0313404 
49 2 -0.328803 0.0784268 3.5105 -0.0265431 0.0390706 -0.0570825 
50 2 0.423246 3.6284 4.55433 -0.0640578 -0.040278 0.0416021 
