ITEM: TIMESTEP
100
ITEM: NUMBER OF ATOMS
50
ITEM: BOX BOUNDS pp pp pp
-5 5
-5 5
-5 5
ITEM: ATOMS id type x y z vx vy vz 
1 1 2.16691 0.698499 -3.8796 0.0221508 -0.047096 0.0100937 
2 1 -3.70203 2.95451 2.36743 0.011436 -0.0389954 0.0628208 
3 1 1.23562 4.13003 1.09855 -0.0145778 -0.00915809 -0.00313488 
4 1 3.52069 -4.08121 -4.46706 -0.0216932 -0.0421508 -0.0330854 
5 1 -1.75413 2.12752 0.234824 0.0365938 0.0305642 0.0366014 
6 1 0.835614 1.09602 1.41395 0.0305384 -0.0429272 -0.00794695 
7 1 3.40825 2.38923 0.969392 -0.0116579 -0.0391861 0.0249592 
8 1 1.84005 2.23918 3.54761 0.0194928 0.00372189 0.0289594 
9 1 3.51507 2.96828 -2.5795 -0.0213085 -0.0186139 -0.00224485 
10 1 -3.03447 1.45473 4.10008 -0.0130118 0.00175964 -0.0244019 
11 1 -0.341362 2.25098 -2.02185 -0.0112045 0.0131198 0.00896571 
12 1 2.00202 -3.27407 3.07938 0.00720286 0.0277286 0.00827664 
13 1 -0.648522 -0.231009 3.29811 0.0366271 -0.0015527 0.0234113 
14 1 4.43004 0.39086 2.26594 0.00229794 0.000676051 -0.0156098 
15 1 3.31982 4.01453 3.46629 0.0497339 0.00810639 -0.000459694 
16 1 -1.06623 3.57878 -4.68584 0.0127976 -0.0115186 0.0248184 
17 1 -1.11634 -2.65732 4.68089 0.00940263 0.0270954 -0.0105563 
18 1 -4.63762 2.34748 -0.390318 0.0203519 -0.00599401 0.029191 
19 1 2.01601 3.81099 -4.24387 -0.0289254 -0.0164738 0.0139942 
20 1 -0.796976 2.30306 3.08989 0.0142759 -0.0094853 -0.0217014 
21 1 4.57044 1.05114 4.70519 -0.00536343 0.0363183 0.0205058 
22 1 -3.40333 1.60649 -3.16115 -0.0476563 -0.0305622 -0.0140484 
23 1 2.55603 -0.936189 3.31298 -0.00480946 -0.0330132 0.0194122 
24 1 0.340325 4.8247 3.5342 -0.0461138 -0.00213509 -0.0122104 
25 1 -4.8103 3.74818 -4.45406 -0.00969771 0.00167578 -0.0134858 
26 2 -3.97908 1.9102 -4.56823 -0.0169831 0.0128637 -0.0125277 
27 2 -2.02595 2.80234 3.84635 0.0142381 -0.00443959 -0.00374946 
28 2 0.0964905 1.92761 -0.634879 -0.0781666 -0.0301731 -0.00974121 
29 2 0.0906094 2.81172 -3.46642 -0.0271839 -0.0102945 0.00100324 
30 2 -4.42186 2.62816 -2.60398 0.0380603 0.00486236 0.0399032 
31 2 1.36862 -1.90093 2.81625 0.00986815 0.00969835 -0.0833485 
32 2 3.47929 4.47904 -4.03132 -0.00674035 -0.00470948 0.0183979 
33 2 3.09528 -3.8673 3.91276 0.0145437 0.00734304 0.0372645 
34 2 2.91709 0.203507 1.96311 0.0080405 0.0182919 -0.0160129 
35 2 -4.23105 0.498638 3.32207 -0.00644175 0.00105767 -0.0243868 
36 2 -3.02181 2.92668 0.874812 0.0230003 0.0780719 0.018551 
37 2 2.85704 2.05417 -3.69902 -0.0341181 0.0274798 -0.0654824 
38 2 -0.435999 -4.29525 4.43102 0.0166095 0.00780966 -0.00271725 
39 2 -1.41285 -1.30647 4.07444 0.0259807 -0.0533176 -0.0304039 
40 2 5.18872 1.47357 0.972658 -0.010178 -0.00925945 -0.0204805 
41 2 0.118289 1.11804 3.55635 -0.000403342 0.00671091 -0.00638122 
42 2 -1.26239 0.734659 1.65381 0.0376948 0.0452108 -0.0268868 
43 2 1.25458 -4.65845 2.32223 -0.0051958 0.0393 0.0234761 
44 2 0.222033 3.00312 1.9957 0.0141056 0.0431359 -0.00851664 
45 2 1.91933 3.67314 4.15067 -0.0285817 -0.00910641 -0.0119131 
46 2 2.90659 3.10932 2.1166 -0.00111611 -0.00211066 0.00237877 
47 2 4.72232 3.34639 3.92953 0.0119068 -0.0525626 0.0371077 
48 2 2.87627 0.639847 4.36619 -0.0185459 0.00687666 -0.0345835 
49 2 -2.09635 1.51799 -2.16842 -0.0276348 0.0545097 0.00216563 
50 2 3.82476 2.85285 -0.67227 0.0103593 0.0108474 0.02376 
ITEM: TIMESTEP
200
ITEM: NUMBER OF ATOMS
50
ITEM: BOX BOUNDS pp pp pp
-5 5
-5 5
-5 5
ITEM: ATOMS id type x y z vx vy vz 
1 1 2.36833 0.50085 -4.07588 0.01431 0.00896273 -0.0445898 
2 1 -3.71586 2.77746 2.66106 -0.0118608 0.0155751 -0.00525311 
3 1 1.26565 4.09521 1.34221 0.047251 0.0136975 0.0293579 
4 1 3.29768 -4.42571 -4.60112 -0.0232482 -0.03789 0.0326485 
5 1 -1.34276 2.30577 0.647508 0.0315535 0.021755 0.025953 
6 1 0.967931 0.700504 1.32311 0.00447735 -0.0382483 -0.00873693 
7 1 3.41765 1.9598 0.99993 -0.00080114 -0.0271824 -0.0135209 
8 1 2.01275 1.9778 3.7543 0.00658486 -0.0361148 0.00800135 
9 1 3.62891 2.79092 -2.39304 0.0359363 -0.00336102 0.0368275 
10 1 -3.10197 1.25209 4.12802 0.00659255 -0.0444121 0.0348812 
11 1 -0.6644 2.25259 -2.12247 -0.0535479 -0.0142206 -0.00996826 
12 1 1.91652 -3.32182 2.98695 -0.00807155 -0.00768302 -0.0168834 
13 1 -0.320341 -0.307681 3.39212 0.0300828 -0.00844816 -1.48968e-05 
14 1 4.6762 0.454399 2.04071 0.0305991 -0.00500274 -0.0148298 
15 1 3.66591 4.09519 3.31309 0.00961422 -0.00617943 -0.0353303 
16 1 -1.03159 3.33183 -4.49307 -0.0241453 -0.0269564 -0.0176196 
17 1 -0.877035 -2.87913 4.60042 0.0278519 -0.0439413 -0.0100902 
18 1 -4.31436 2.42854 -0.303863 0.0306321 0.0255408 -0.0120729 
19 1 1.65303 3.43001 -4.19874 -0.0421241 -0.0467945 0.00227923 
20 1 -0.628826 2.24343 2.66091 0.0186075 -0.000829698 -0.0247205 
21 1 4.36021 1.60024 4.71967 -0.0353557 0.0502595 -0.0314825 
22 1 -3.67064 1.54434 -3.02362 -0.00387832 0.0262336 0.038023 
23 1 2.41694 -0.721862 3.33051 -0.0154391 0.0628177 -0.0250147 
24 1 0.18602 4.72348 3.27106 0.00392584 -0.0135862 -0.0151439 
25 1 -4.87873 3.48134 -4.49042 0.00341765 -0.0324652 0.0194485 
26 2 -4.0554 1.73969 -4.67421 0.00434218 -0.0407506 0.0332121 
27 2 -1.96236 2.72286 3.8672 0.000702076 -0.018839 0.000643016 
28 2 -0.527501 1.75848 -0.516278 -0.0324744 0.00323117 -0.00126709 
29 2 -0.107342 2.92458 -3.56051 0.00723004 0.0183954 0.0063445 
30 2 -4.48803 2.79187 -2.10027 -0.0481607 0.0084401 0.0400028 
31 2 1.55687 -1.66218 2.28273 0.0265935 0.0329788 -0.0152401 
32 2 3.54664 4.33913 -3.6729 0.0192522 -0.0208573 0.03681 
33 2 3.25695 -3.66874 4.07274 0.00491405 0.0325043 -0.0298946 
34 2 2.83698 0.505475 1.70672 -0.0238603 0.0443534 -0.0340067 
35 2 -4.36656 0.681803 3.23235 -0.00855936 0.0320751 -0.00173097 
36 2 -2.77937 3.53518 1.13516 0.0187396 0.0241091 0.0365459 
37 2 2.57778 2.20665 -4.04734 -0.00855074 -0.0205055 -0.00460862 
38 2 -0.43267 -4.17991 4.59593 -0.00223501 -0.0059243 0.0198327 
39 2 -1.14706 -1.5225 3.70659 0.0301066 0.00160909 -0.0357097 
40 2 -5.06051 1.40474 0.911761 -0.0119955 0.00423174 -0.00308331 
41 2 0.423955 1.14393 3.58128 0.0509934 -0.00612155 0.00362675 
42 2 -0.810705 1.22465 1.53872 0.0483998 0.0306372 0.0249187 
43 2 1.17445 -4.33576 2.33094 -0.0167643 0.00563406 -0.0216343 
44 2 0.203607 3.34226 1.93319 -0.0408522 0.0192081 0.00624341 
45 2 1.42703 3.7034 4.2883 -0.0562745 0.0136936 0.0211366 
46 2 2.8441 3.09782 2.1578 -0.00374508 0.00176462 0.00916622 
47 2 4.79499 3.02183 4.00351 -0.0149974 0.00259353 -0.0332109 
48 2 2.80967 0.513392 4.22226 0.00658194 -0.0261894 0.0158757 
49 2 -2.25895 2.00852 -2.22487 -0.00664173 0.0362163 -0.0237783 
50 2 3.75175 2.90125 -0.498684 -0.0257087 -0.00401413 0.00765768 
ITEM: TIMESTEP
300
ITEM: NUMBER OF ATOMS
50
ITEM: BOX BOUNDS pp pp pp
-5 5
-5 5
-5 5
ITEM: ATOMS id type x y z vx vy vz 
1 1 2.37998 0.540472 -4.33633 -0.0140176 -0.0251353 0.00489217 
2 1 -3.75726 2.98258 2.5345 0.00531183 0.00826881 -0.00800393 
3 1 1.82996 4.13956 1.59786 0.0239548 -0.000454193 0.0108345 
4 1 3.02854 -4.7055 -4.36795 -0.0255138 -0.0264365 0.0071793 
5 1 -1.16897 2.70375 0.68633 0.0172103 0.0472827 0.00588517 
6 1 0.978812 0.404437 1.1781 -0.0123217 -0.016578 -0.0280903 
7 1 3.33018 2.04301 0.75192 -0.00762295 0.0251517 -0.0229688 
8 1 1.90524 1.96982 3.56988 -0.00846751 0.0544308 -0.0415964 
9 1 3.79484 2.99632 -1.92317 -0.0366113 0.0414729 0.0388619 
10 1 -3.09482 0.869792 4.51695 -0.0169108 -0.0181789 0.0357329 
11 1 -1.01166 2.12335 -2.13252 -0.00377906 -0.00197412 -0.00773364 
12 1 1.98706 -3.11068 2.82201 0.0105704 0.0368698 -0.0217409 
13 1 -0.0639043 -0.281989 3.32762 0.0154467 0.0051318 -0.0143513 
14 1 4.98268 0.325901 1.97525 0.0393956 -0.000832548 -0.00995625 
15 1 3.66208 4.03328 2.89977 0.00954395 0.0136504 -0.0254761 
16 1 -1.38051 3.09949 -4.90881 -0.0279447 -0.00954394 -0.0242968 
17 1 -0.734317 -2.91511 4.32977 0.0112552 -0.00166541 -0.0363508 
18 1 -4.20506 2.73612 -0.383041 -0.00370052 0.0266119 0.0134761 
19 1 1.21979 3.00709 -4.09246 -0.0239264 -0.0347393 0.0087629 
20 1 -0.441327 2.2892 3.10041 0.0124671 -0.0016596 0.0602453 
21 1 4.18379 1.6811 4.19376 0.0146123 -0.0205299 -0.0566293 
22 1 -3.72091 1.8779 -2.63872 -0.030769 0.0130118 0.0254793 
23 1 2.40195 -0.138841 2.84074 0.0241732 0.0523051 -0.0471448 
24 1 0.205468 4.61957 3.40211 -0.00074678 0.00544018 0.0226171 
25 1 -4.78105 3.33463 -4.16414 0.00129892 -0.00651105 0.0352431 
26 2 -4.1358 1.46223 -4.08853 -0.0204781 -0.0113152 0.0479511 
27 2 -1.96371 2.3805 3.96868 0.00307131 -0.0518993 0.0200016 
28 2 -0.655398 1.92531 -0.747448 -0.00463057 0.0260413 -0.0108237 
29 2 -0.0141364 3.0194 -3.36405 -0.0179094 -0.00651274 0.0240853 
30 2 -4.75911 2.64639 -1.91189 0.0254234 -0.0293576 0.0133981 
31 2 1.73292 -1.36801 2.39654 0.000378734 0.0101644 0.0221008 
32 2 3.86231 4.10709 -3.48681 0.039599 -0.0159709 -0.000951281 
33 2 3.13591 -3.61599 3.86204 -0.0293663 -0.0244688 -0.00887945 
34 2 2.41841 0.863553 1.50169 -0.0438221 0.0239293 -0.00591714 
35 2 -4.33024 1.04458 3.26193 0.00844816 0.0355016 0.0105344 
36 2 -2.74853 3.372 1.48007 -0.0119629 -0.0459715 0.0189706 
37 2 2.68972 1.9047 -4.03795 0.0129334 0.000559441 0.00315603 
38 2 -0.417319 -4.60262 4.67855 -0.0164401 -0.0310853 -0.0055574 
39 2 -0.811987 -1.63734 3.57544 0.0363386 -0.0185753 0.00650609 
40 2 5.17826 1.5856 0.782431 0.0393784 0.0258483 -0.0139723 
41 2 0.92499 0.901811 3.64009 0.0336192 -0.041086 0.0199215 
42 2 -0.336187 0.98043 1.8459 0.0422949 -0.0508268 0.0255217 
43 2 1.06482 -4.47771 2.05325 0.0182016 -0.00359067 -0.0153693 
44 2 -0.18818 3.66326 1.95335 -0.0312504 0.0164195 0.00340414 
45 2 1.01854 3.72207 4.37102 -0.0123231 -0.0385744 -0.00064065 
46 2 2.68866 3.16811 2.25668 -0.0316155 -0.00328655 0.00589097 
47 2 4.66677 3.31694 3.7461 0.00364812 0.035277 -0.00256832 
48 2 3.10506 0.320719 4.33153 0.0553355 -0.0137157 -0.0311725 
49 2 -2.41086 2.33201 -2.64135 -0.000162596 0.043218 -0.0507444 
50 2 3.25006 2.8477 -0.465639 -0.0716173 0.00388841 0.000283937 
ITEM: TIMESTEP
400
ITEM: NUMBER OF ATOMS
50
ITEM: BOX BOUNDS pp pp pp
-5 5
-5 5
-5 5
ITEM: ATOMS id type x y z vx vy vz 
1 1 2.34971 0.310866 -4.53517 0.00843929 0.00127151 -0.0563517 
2 1 -3.73165 2.79061 2.71734 0.00997857 -0.0347536 0.0320604 
3 1 1.47875 4.26161 1.3606 -0.0584411 0.00907052 -0.0480846 
4 1 2.91172 -5.03776 -4.50804 0.00622029 -0.0357607 -0.0358173 
5 1 -1.04768 3.11415 0.848539 -0.00634299 0.0242272 0.0146369 
6 1 0.752487 0.370731 0.740178 -0.0231892 0.0167619 -0.0446933 
7 1 3.21973 2.12388 0.76367 -0.016971 0.00555499 0.00880304 
8 1 1.80048 2.54565 3.23933 -0.0162177 0.0129408 -0.00535284 
9 1 3.3968 3.41118 -1.85341 -0.0276578 0.0329906 -0.0146288 
10 1 -3.36869 0.979554 4.80637 -0.0209398 0.0322856 0.0181532 
11 1 -0.994831 2.26261 -2.27124 -0.00791175 0.0224368 0.011177 
12 1 2.05217 -2.82392 2.63135 0.00475257 0.000455204 -0.00831002 
13 1 0.0960043 -0.396649 3.16241 0.0315685 -0.0300341 -0.00273714 
14 1 5.58361 0.579365 1.78259 0.0759936 0.044667 -0.0269008 
15 1 3.86243 4.38356 2.92353 0.0105464 0.0471102 0.0221481 
16 1 -1.6374 3.25816 -4.56524 -0.0238941 0.021324 0.0712152 
17 1 -0.624767 -3.21534 4.0787 0.00525514 -0.0282358 -0.0159957 
18 1 -4.1366 2.90119 -0.019185 0.0263549 0.0117414 0.0461233 
19 1 1.21548 2.7007 -4.09972 0.00609826 -0.0337568 -0.0093663 
20 1 -0.457536 2.05398 3.29211 -0.0181055 -0.0426071 -0.00439582 
21 1 4.46904 1.56145 3.9173 0.0139281 0.0120229 0.0103616 
22 1 -3.75903 1.63415 -2.56108 0.015615 -0.0328886 0.00695622 
23 1 2.64079 0.136761 2.69415 0.00402745 0.00127535 0.0093394 
24 1 0.302524 4.73307 3.44958 0.0206455 -0.00273975 -0.00598938 
25 1 -4.8944 3.16157 -3.99569 -0.0167152 -0.0297102 -0.00585927 
26 2 -4.39964 1.38401 -4.05086 -0.0280009 0.000108868 -0.0236299 
27 2 -1.8446 1.75799 4.21974 0.0199106 -0.0531318 0.0385923 
28 2 -0.721412 2.23239 -0.517331 -0.0111064 0.0340609 0.0354741 
29 2 -0.161241 2.86037 -3.29371 0.0225434 -0.0116027 -0.0293055 
30 2 -4.78265 2.66146 -1.45367 -0.0199375 0.0217503 0.0484434 
31 2 1.7277 -1.38183 2.5292 0.00805541 0.00907888 0.000106596 
32 2 4.08502 4.21725 -3.49097 -0.00757082 0.0360106 0.00676079 
33 2 2.77023 -4.10984 3.9029 -0.0327977 -0.0711161 0.0244722 
34 2 2.25798 1.04811 1.33529 -0.000559 3.04316e-05 -0.0286118 
35 2 -4.21939 1.27198 3.28359 0.0338574 0.0107145 -0.0184227 
36 2 -2.78993 2.94844 1.3077 0.0014541 -0.0284702 -0.0380227 
37 2 2.59144 2.00265 -3.99765 -0.0228358 0.00110345 0.00899736 
38 2 -0.796419 -4.61823 4.50799 -0.0420463 0.00381645 -0.0284767 
39 2 -0.499911 -1.70478 3.69432 0.0202454 -0.0118776 0.0210037 
40 2 -4.72693 1.77277 0.804608 -0.0344513 -0.00260841 0.0305922 
41 2 1.25375 0.725359 4.15846 0.0348795 -0.0051949 0.0699402 
42 2 -0.17784 0.595213 2.08638 -0.0068615 -0.0173944 0.0116972 
43 2 1.46884 -4.31958 2.09036 0.0354778 0.0222595 0.0104006 
44 2 -0.343451 3.51192 2.17804 0.0156909 -0.0243851 0.0445542 
45 2 0.97626 2.99921 4.27849 -0.0265963 -0.0553747 -0.00780174 
46 2 2.66504 3.16804 2.28714 0.0450557 0.0436711 -0.0274127 
47 2 4.86426 3.51574 3.81662 0.0318978 0.00416145 0.00816596 
48 2 3.72775 0.263414 3.8344 0.0551089 -0.00594951 -0.0557739 
49 2 -2.41612 2.79122 -3.2457 -0.0274175 0.0364156 -0.0666932 
50 2 2.50767 3.09359 -0.522813 -0.0670333 0.038274 -0.0015416 
ITEM: TIMESTEP
500
ITEM: NUMBER OF ATOMS
50
ITEM: BOX BOUNDS pp pp pp
-5 5
-5 5
-5 5
ITEM: ATOMS id type x y z vx vy vz 
1 1 2.77583 0.463287 -4.89255 0.0844184 0.0164269 0.00758562 
2 1 -3.45617 2.84736 2.94609 0.0326491 0.0545556 0.0188001 
3 1 1.17976 4.31324 0.829559 0.00320204 0.0040004 -0.0523064 
4 1 3.10074 4.57286 -4.66177 0.02767 -0.0559279 0.0485198 
5 1 -1.30081 3.12878 1.04376 -0.0245775 -0.0156915 0.0289197 
6 1 0.554256 0.78874 0.559747 -0.0161823 0.0617051 0.013146 
7 1 3.16134 2.35126 0.791287 0.0100716 0.0303893 0.000653942 
8 1 1.81314 2.46689 3.0431 -0.00301353 -0.00703479 -0.0311423 
9 1 3.24095 3.6194 -1.93862 -0.00657874 0.0111016 0.000673429 
10 1 -3.19762 1.25449 4.82358 0.0417032 0.0187902 -0.00250181 
11 1 -0.978132 2.57575 -1.91436 0.022704 0.0376603 0.0483051 
12 1 2.07443 -3.00283 2.6534 -0.00345461 -0.0173475 0.00615107 
13 1 0.506773 -0.774901 3.27017 0.0336469 -0.029674 0.0169279 
14 1 -3.70684 0.897424 1.5635 0.0520097 0.0189801 -0.0139378 
15 1 3.79234 4.72584 3.10684 -0.0168195 0.00986182 -0.00119268 
16 1 -1.47913 3.51536 -4.25789 0.0427634 0.0232159 -0.00707937 
17 1 -0.707096 -3.24777 3.98316 -0.0272329 -0.0202167 -0.000574295 
18 1 -3.98736 2.93441 0.281565 -0.028289 0.000240645 -0.00516155 
19 1 1.11195 2.30779 -4.3601 -0.0213855 -0.0465186 -0.0353244 
20 1 -0.727252 1.63584 3.33786 -0.0214336 -0.0342705 0.0171115 
21 1 4.47468 1.75302 4.03697 0.00714001 0.00965019 -0.0118388 
22 1 -3.76186 1.56028 -2.49044 -0.0208282 0.0245357 -0.00214092 
23 1 2.61858 0.000341109 2.5897 0.0133746 -0.0149742 -0.0438122 
24 1 0.491484 4.45512 3.48538 0.0107976 -0.043596 0.0163529 
25 1 -5.10578 3.03606 -4.06984 -0.015131 0.0141126 0.0050223 
26 2 -4.71202 1.51791 -4.23042 -0.0337433 0.0107411 -0.0206369 
27 2 -1.72465 1.39414 4.61762 0.00886589 -0.0207137 0.0347362 
28 2 -0.803991 2.54242 -0.37529 -0.000660327 0.0250254 -0.00762284 
29 2 -0.103394 2.81974 -3.42904 -0.0356933 0.00564307 0.0253311 
30 2 -4.90899 2.88781 -1.21407 -0.00443152 0.0193392 0.0104315 
31 2 1.86443 -1.26607 2.52869 0.0118046 -0.0183193 0.00629359 
32 2 3.81958 4.42631 -3.43736 -0.0335392 -0.00660725 0.00952513 
33 2 2.55774 -4.88347 4.19995 -0.0284385 -0.0607162 -0.0126496 
34 2 2.12775 0.912227 1.14242 -0.0259077 -0.00307004 -0.0094993 
35 2 -3.66585 1.27705 3.15046 0.0689292 -0.00650585 -0.00140551 
36 2 -2.7812 2.79235 1.12836 -0.000781684 -0.0133497 0.0202882 
37 2 2.70589 1.92823 -3.86636 0.038056 -0.00761493 0.00308811 
38 2 -1.05368 -4.7889 4.17265 -0.00717402 -0.025853 -0.0341509 
39 2 -0.339523 -1.90529 3.95681 0.0227649 -0.00320407 0.0235374 
40 2 -5.33523 1.74984 1.17553 -0.0548574 0.00465169 0.0320418 
41 2 1.35731 0.502971 4.36786 -0.0195044 -0.02866 -0.0359761 
42 2 -0.244883 0.593221 2.0898 -0.00447459 0.00705974 -0.00142503 
43 2 1.46167 -4.26878 1.97739 -0.031239 -0.0103549 -0.0267525 
44 2 0.0115209 3.36266 2.35742 0.0372208 -0.00870946 -0.042712 
45 2 0.627155 2.91761 4.26053 -0.00825569 0.013549 -0.000607619 
46 2 3.10778 3.66026 2.04035 0.0274003 0.0326082 -0.0109606 
47 2 5.13945 3.42437 3.93984 0.0149807 -0.0196493 0.0195083 
48 2 3.9762 0.26174 3.39501 -0.00856535 0.019015 -0.018752 
49 2 -3.07595 2.89145 -3.47607 -0.07469 -0.00647407 0.00832027 
50 2 2.00024 3.56017 -0.490701 -0.0352906 0.0521945 0.00889237 
