ITEM: TIMESTEP
100
ITEM: NUMBER OF ATOMS
50
ITEM: BOX BOUNDS pp pp pp
-5 5
-5 5
-5 5
ITEM: ATOMS id type x y z vx vy vz 
1 1 3.07127 -1.07259 2.30324 0.0382729 -0.00256668 0.0293512 
2 1 -1.99879 4.02356 1.89278 -0.029516 -0.0199173 -0.0182592 
3 1 3.05987 -4.14812 0.410842 -0.00495348 -0.0389142 -0.0606983 
4 1 3.67896 3.51299 -1.66913 0.0200854 -0.0144237 -0.00158028 
5 1 -2.30846 -3.53358 0.0597447 0.0369801 0.0248396 0.0876309 
6 1 -3.56045 3.67618 -0.200277 -0.0446427 -0.021825 -0.0162386 
7 1 3.11786 -3.61771 -2.27398 0.0219535 -0.0624114 -0.0106849 
8 1 -3.19171 -3.85509 2.24112 -0.00567512 -0.00742683 -0.0337968 
9 1 4.70301 3.71364 1.71337 -0.0141606 0.00884907 0.00201886 
10 1 -3.89181 -1.48408 0.952452 0.0981155 -0.0368807 0.00178292 
11 1 4.53693 1.49248 -4.59514 0.0576028 0.000952128 0.0207529 
12 1 -2.04223 -3.72333 -3.45912 -0.0369997 -0.0549231 -0.00975938 
13 1 -3.63002 -3.3319 4.50962 -0.0388578 0.0367834 0.0383589 
14 1 -2.12517 4.62483 4.17223 0.0727321 0.0319321 -0.00561595 
15 1 -5.0937 1.30615 -0.564836 -0.0319747 0.0335184 -0.0071344 
16 1 -4.28592 -0.346101 2.97511 -0.00978467 0.0623184 -0.0252573 
17 1 0.0993809 -2.12502 -2.44817 -0.0268103 -0.0256904 -0.00630025 
18 1 -2.797 3.73399 -3.16994 0.0253941 -0.0308266 -0.0344961 
19 1 -3.26274 1.92708 4.17481 0.00036553 -0.0171481 -0.00819051 
20 1 3.67266 -1.41995 -0.202375 -0.00130057 0.0107441 -0.00133371 
21 1 1.70935 4.60006 -1.22356 -0.0767988 -0.0146469 -0.0193737 
22 1 -4.69 -4.42828 -1.71689 -0.0301868 0.0226657 0.0173092 
23 1 0.705874 -3.04316 0.700698 -0.0303628 0.0167587 -0.00545976 
24 1 -2.48055 -1.29117 -4.1649 0.00142547 0.0171183 -0.0323027 
25 1 -0.911456 -3.06918 2.74349 0.005986 0.0185489 0.0318511 
26 2 -3.57453 2.56318 0.697964 -0.0303751 0.0549785 -0.00868183 
27 2 3.5702 2.46354 -3.17175 0.00963234 -0.0123512 0.0115018 
28 2 -4.39674 -2.87851 -0.802764 -0.0155258 -0.017315 0.0326862 
29 2 2.69348 -2.92899 1.17658 0.0306602 -3.80594e-06 -0.00334132 
30 2 4.59827 -1.43821 2.10761 -0.0413345 -0.0312659 -0.0269607 
31 2 -4.84519 1.29764 3.68851 -0.0111986 0.0467188 -0.020248 
32 2 -3.09067 -5.00878 0.550731 -0.0553485 -0.0140564 0.0277892 
33 2 1.44477 -4.35225 -0.298452 -0.0133345 -0.0574765 0.037522 
34 2 -0.390127 -2.59917 -3.91839 -0.0038086 -0.0305845 0.000351566 
35 2 3.0191 -1.95889 -1.93922 0.0368939 0.00323608 -0.00541507 
36 2 -2.56748 -2.37495 1.7168 0.000500985 0.0140889 0.0168605 
37 2 0.529267 -2.23825 2.05794 0.0247983 -0.00407493 0.00596729 
38 2 -2.28858 -3.60851 3.76175 0.094904 0.0425863 0.0517956 
39 2 -3.17288 -2.71522 -3.74582 0.0106916 -0.000641879 0.0454276 
40 2 -0.987546 -2.70253 -1.31389 -0.0301013 -0.0230118 0.00106829 
41 2 -4.14191 4.13979 -2.34823 -0.00427361 0.0432174 -0.0466207 
42 2 -3.25008 1.90466 -4.05464 0.0463907 0.0264368 -0.00657642 
43 2 -3.22447 -0.647067 4.71904 0.0134219 -0.0306294 0.0528217 
44 2 -2.2555 4.56893 -4.28075 -0.0343086 0.0222933 -0.017152 
45 2 4.37172 -0.145046 0.0716716 0.00173953 0.0122257 -0.0554835 
46 2 -4.40099 -4.7677 2.87447 0.0335761 -0.0303064 0.0121302 
47 2 3.94864 3.61724 0.174756 -0.0190712 -0.0188347 -0.0265082 
48 2 -1.78601 3.43144 3.22577 0.0171235 0.0424173 0.00187896 
49 2 3.39409 5.02635 -1.82768 0.00831805 0.0446273 0.0291919 
50 2 -0.786489 -4.28241 1.45829 -0.0668606 -0.0197017 -0.0425792 
ITEM: TIMESTEP
200
ITEM: NUMBER OF ATOMS
50
ITEM: BOX BOUNDS pp pp pp
-5 5
-5 5
-5 5
ITEM: ATOMS id type x y z vx vy vz 
1 1 3.22718 -1.44145 2.44213 -0.00261933 -0.0726068 -0.00846232 
2 1 -2.31067 3.87451 1.46141 -0.0365525 -0.00302081 -0.0361669 
3 1 3.01884 -4.48975 -0.0325697 -0.00662784 -0.0231498 -0.0220006 
4 1 3.99731 3.40642 -1.8978 0.0214471 0.0146432 -0.0380867 
5 1 -1.71452 -3.36807 0.449233 0.0578476 0.0227603 -0.0308604 
6 1 -3.96745 3.86432 -0.566181 -0.0323463 0.0446134 -0.0310951 
7 1 3.10403 -3.40302 -2.62824 -0.0139547 0.05645 -0.0403159 
8 1 -3.51868 -4.05618 2.03975 -0.0486042 -0.0279634 -0.00815187 
9 1 4.80963 3.825 1.6667 0.0413623 0.00772818 -0.0121513 
10 1 -3.43406 -1.77902 0.687476 -0.027079 -0.00594918 -0.0557744 
11 1 5.05109 1.67474 -4.23958 0.0357989 0.0315135 0.0491102 
12 1 -2.18834 -4.07305 -3.49012 0.000193998 0.006573 0.0191735 
13 1 -3.88331 -2.93828 4.94904 -0.00664977 0.0370541 0.0440929 
14 1 -1.43296 5.03255 4.24194 0.0507822 0.039434 0.00694076 
15 1 4.59336 1.55092 -0.375788 -0.0282961 0.0337754 0.0453038 
16 1 -4.51802 0.247896 2.94521 -0.0332307 0.042102 0.00343542 
17 1 -0.341175 -2.53784 -2.42299 -0.0573706 -0.0499694 0.0244706 
18 1 -2.89089 3.28628 -3.56998 -0.0299346 -0.00247328 -0.0294766 
19 1 -3.11377 1.90791 4.19663 0.0329766 0.0209236 -0.00195679 
20 1 3.73414 -1.60375 -0.387744 0.0237059 -0.0379707 -0.0243326 
21 1 0.848516 4.41618 -1.40201 -0.0828725 -0.00930015 0.00157112 
22 1 -4.68781 -4.08557 -1.45652 0.0227704 0.042888 0.0260429 
23 1 0.589357 -3.11431 0.697513 0.0210879 -0.0282404 0.00691797 
24 1 -2.24845 -1.39663 -4.17022 0.0328942 -0.0327938 0.0130531 
25 1 -0.8245 -2.75809 2.97013 0.00708344 0.0458019 0.0154407 
26 2 -4.00214 2.70186 0.807527 -0.0475568 -0.00947097 0.0125021 
27 2 3.87502 2.28303 -2.95189 0.057953 -0.0220687 0.0262655 
28 2 -4.54312 -3.12254 -0.359983 -0.00735603 -0.00933725 0.0531858 
29 2 3.04369 -2.84258 0.843611 0.025382 0.0116752 -0.0597874 
30 2 4.77053 -1.39826 2.01301 0.0640171 0.0455431 0.00979733 
31 2 -4.73767 1.61347 3.66044 0.0336407 0.0160224 0.0176466 
32 2 -3.5556 4.99637 0.750964 -0.0504985 -0.00357698 -0.0050668 
33 2 1.31391 -4.76647 0.0287246 -0.0224337 -0.0306659 0.0149969 
34 2 -0.52185 -2.87498 -3.77702 -0.0184325 -0.024988 0.0225378 
35 2 3.30267 -2.21203 -1.84409 0.019379 -0.0406152 0.017329 
36 2 -2.56474 -2.42444 1.79105 0.019067 -0.0295774 0.0120264 
37 2 0.478556 -2.29513 2.15566 -0.030728 -0.0159653 0.00311834 
38 2 -1.51609 -3.37189 4.17315 0.0543614 0.0119196 0.0239813 
39 2 -3.16345 -2.76857 -3.51137 -0.00952595 0.000751097 -0.00126973 
40 2 -1.19972 -2.96968 -1.1483 -0.00696394 -0.0281982 0.0384194 
41 2 -4.10137 4.57931 -2.38828 0.00764182 0.0303693 0.0400717 
42 2 -2.97013 2.21044 -4.325 0.00052584 -0.000904744 -0.0531204 
43 2 -3.43921 -0.70653 4.64108 -0.040499 0.00653516 -0.0401943 
44 2 -2.48419 4.86554 -4.37501 -0.0113561 -0.000965048 -0.0127908 
45 2 4.46777 0.144431 -0.498844 0.00514477 0.0127388 -0.0526808 
46 2 -4.05583 -5.06455 3.01748 0.018591 -0.0271678 0.0218978 
47 2 3.93392 3.38449 -0.103618 0.0212951 -0.0365593 -0.0280905 
48 2 -1.74244 3.73403 3.20177 7.64958e-06 0.0179151 -0.013682 
49 2 3.49933 -4.77981 -1.4051 0.0148759 0.017004 0.0189024 
50 2 -1.49115 -4.46926 1.23809 -0.0383445 -0.0432364 0.0172829 
ITEM: TIMESTEP
300
ITEM: NUMBER OF ATOMS
50
ITEM: BOX BOUNDS pp pp pp
-5 5
-5 5
-5 5
ITEM: ATOMS id type x y z vx vy vz 
1 1 3.41042 -2.33579 2.01207 0.0386625 -0.0896249 -0.0704742 
2 1 -2.52782 3.97696 1.44055 0.00766286 0.00590229 0.0281232 
3 1 2.92215 -4.57371 -0.0952748 0.00131819 -0.00107796 -0.0207757 
4 1 4.0433 3.7859 -2.19878 -0.00341123 0.0414925 -0.0160291 
5 1 -1.55794 -3.38356 0.576908 -0.0200928 -0.0307594 0.0916674 
6 1 -4.24759 4.1447 -0.66928 -0.0329306 -0.017602 0.00473085 
7 1 2.94912 -3.1421 -2.98064 -0.0131409 0.00318216 -0.0206208 
8 1 -3.74896 -4.03779 1.92828 0.00101272 0.0320786 -0.0109002 
9 1 5.2949 3.77632 1.61923 0.0249668 -0.0199813 0.0246512 
10 1 -3.909 -1.78755 0.464117 -0.0123389 0.0563544 0.0408321 
11 1 -4.64631 1.84478 -3.9066 0.0490901 -0.0144268 -0.0113143 
12 1 -2.23648 -3.9604 -3.31644 -0.0153463 -0.00390281 3.43447e-05 
13 1 -4.01252 -2.5673 5.14505 -0.0316244 0.0468739 -0.0154733 
14 1 -1.30513 -4.83589 4.17927 -0.022917 -0.0101692 -0.0193644 
15 1 4.4193 1.80179 0.159211 0.00233992 -0.0111525 0.0422431 
16 1 -4.77672 0.34715 3.03029 -0.00622265 -0.0039423 0.0296624 
17 1 -0.706885 -2.87904 -2.00306 0.00925877 -0.000239016 0.0193734 
18 1 -3.1769 3.79262 -3.72559 -0.0365785 0.0470997 -0.00931907 
19 1 -2.76479 2.28703 3.74527 0.0250729 0.0587052 -0.0571914 
20 1 4.06458 -1.94975 -0.510541 0.0221421 -0.0130481 -0.00185405 
21 1 0.11769 4.46979 -1.08259 -0.0677579 0.0176207 0.0574037 
22 1 -4.55704 -3.63273 -1.36337 -0.000491374 0.0370602 -0.00482984 
23 1 1.11937 -3.50437 0.900746 0.0575409 -0.0376853 0.0317484 
24 1 -1.89402 -1.73536 -4.19634 0.047787 -0.0343285 -0.0163026 
25 1 -0.999213 -2.26844 3.00343 -0.0365794 0.0425548 -0.0185116 
26 2 -4.26111 2.4767 0.941101 0.00283991 -0.0453652 0.0269006 
27 2 4.6463 2.19116 -2.77603 0.0720637 0.0257714 0.0218062 
28 2 -4.48999 -2.84821 0.108068 -0.0135335 0.00915055 0.0127118 
29 2 3.0073 -2.71736 0.525525 -0.0340307 -0.00109336 0.0178654 
30 2 5.22223 -0.761049 2.12995 0.0142265 0.0552674 -0.012666 
31 2 -4.41173 1.77178 3.84519 0.0166197 0.0130541 -0.00533812 
32 2 -4.17948 4.74623 0.588406 -0.0540482 -0.00991399 0.0134501 
33 2 1.04761 -4.90446 -0.0508341 -0.0143615 0.00615906 -0.0230524 
34 2 -0.814016 -3.08375 -3.39224 -0.0425593 -0.0145586 0.0532042 
35 2 3.49575 -2.3816 -1.82298 0.0219128 -0.00027869 -0.0351164 
36 2 -2.4156 -2.64812 1.6752 0.00307119 -0.015031 -0.0278424 
37 2 0.271811 -2.56962 1.92079 -0.00568398 -0.0373771 -0.0461347 
38 2 -1.16645 -3.19725 4.22579 0.0153734 0.0239401 -0.00719125 
39 2 -3.21484 -2.64046 -3.55301 0.00493997 0.0161675 0.0055587 
40 2 -1.13408 -3.25219 -0.865164 0.00336995 -0.0412174 0.0353109 
41 2 -3.94602 4.71716 -1.88949 0.0352291 0.018437 0.0101877 
42 2 -3.12042 2.0451 -4.43634 -0.0116666 0.00259748 0.0434938 
43 2 -3.74044 -0.835993 4.38206 -0.0197595 -0.0416115 -0.00441124 
44 2 -2.41769 4.71847 -4.3809 0.0339144 0.00883198 0.0108192 
45 2 4.49367 0.102131 -0.840915 0.0028229 -0.0147059 -0.00404955 
46 2 -4.19277 4.71045 3.11312 -0.0343791 -0.0107583 -0.0231196 
47 2 4.10785 3.13792 -0.540239 -0.00588086 0.0143673 -0.0629465 
48 2 -1.68913 3.67519 3.11992 0.00194638 -0.0359851 0.00804642 
49 2 3.73095 -4.66607 -1.71017 0.0203108 0.000201997 -0.0514327 
50 2 -1.60772 -4.93143 1.26875 -0.000160668 -0.0270341 -0.0335634 
ITEM: TIMESTEP
400
ITEM: NUMBER OF ATOMS
50
ITEM: BOX BOUNDS pp pp pp
-5 5
-5 5
-5 5
ITEM: ATOMS id type x y z vx vy vz 
1 1 4.06038 -3.05927 1.5284 0.0805296 -0.0606497 -0.0433755 
2 1 -2.25833 3.83653 1.78368 0.0315968 -0.0231002 0.0189242 
3 1 3.07465 -4.66111 -0.645286 0.0113455 -0.0141639 -0.0697567 
4 1 4.03582 3.85634 -2.41193 0.000125445 -0.0266518 -0.0382252 
5 1 -1.36222 -3.73291 1.16211 0.0514136 -0.0142094 0.0193758 
6 1 -4.51111 3.76274 -0.635774 -0.00249043 -0.0295654 0.0119414 
7 1 2.92205 -3.27747 -2.99247 0.0120791 -0.0281435 0.0152042 
8 1 -3.83266 -3.74194 1.72716 -0.0215463 0.0058392 -0.036818 
9 1 -4.82247 3.43848 2.1887 -0.0333301 -0.041587 0.0597485 
10 1 -3.7012 -0.923569 1.21493 0.0470035 0.0658486 0.0616729 
11 1 -4.25467 1.44625 -4.17363 0.0303012 -0.0400513 -0.0165191 
12 1 -2.47651 -4.03145 -3.26138 -0.0263402 0.000616259 0.0263149 
13 1 -4.35403 -2.14833 -4.87206 -0.0375128 -0.00975869 0.0528813 
14 1 -1.65838 -4.9345 4.03821 -0.0350064 -0.0016733 0.00353473 
15 1 4.58984 1.45732 0.225619 0.0310354 -0.0623437 -0.0165937 
16 1 -4.58618 0.318164 3.47865 0.0360279 -0.0171463 0.0276952 
17 1 -0.385996 -2.71429 -1.58245 0.0258046 0.00544627 0.0660885 
18 1 -3.60736 3.92306 -3.65675 -0.0287498 -0.0135565 0.0252478 
19 1 -2.93278 2.67694 3.61428 -0.0695592 -0.0102534 0.0433319 
20 1 3.93906 -1.70341 -0.658064 -0.024387 0.0586456 -0.0278198 
21 1 -0.67125 4.84759 -0.318994 -0.0772989 0.0569371 0.085917 
22 1 -4.50531 -3.57316 -1.55899 0.0123206 -0.0133084 -0.0269742 
23 1 1.33362 -3.71613 1.1619 -0.00640379 -0.0126712 0.00942868 
24 1 -1.40339 -2.25772 -4.44689 0.0397958 -0.0730073 -0.0320252 
25 1 -1.32173 -2.04501 2.65044 -0.0267596 0.00613432 -0.0354178 
26 2 -4.19046 2.09537 1.24314 0.000926231 -0.0118167 0.0189478 
27 2 5.28116 2.77236 -2.77954 0.0522247 0.0800016 -0.0297671 
28 2 -4.84812 -2.7634 0.0814644 -0.0513494 0.0218024 -0.000711621 
29 2 2.57856 -3.03585 0.649875 -0.019221 -0.0482267 0.00332807 
30 2 -4.82298 -0.451453 1.72735 -0.0355013 0.033249 -0.0125127 
31 2 -4.28608 1.87382 3.65099 0.0172745 0.0112618 -0.00604382 
32 2 -4.55581 4.8491 0.83718 -0.0309 0.00629779 -0.00960419 
33 2 1.27052 -4.75658 -0.258793 0.0435574 0.00914964 -0.0217135 
34 2 -1.11534 -3.1002 -3.05844 0.00466439 0.0183497 0.0353466 
35 2 3.81774 -2.26989 -2.24642 0.0383117 0.0232185 -0.0371916 
36 2 -2.7408 -2.54862 1.72366 -0.0455723 0.0265907 0.0325663 
37 2 0.0783132 -2.94049 1.55952 -0.0501578 -0.0314684 -0.0127192 
38 2 -1.21408 -2.90079 4.07959 -0.0211104 0.0356095 -0.0242567 
39 2 -3.28016 -2.52995 -3.60176 -0.027577 0.00413136 -0.0205977 
40 2 -1.13751 -3.72911 -0.464271 0.0105847 -0.0251038 0.00295872 
41 2 -3.46665 5.03634 -2.15279 0.0396186 0.0387287 -0.0404697 
42 2 -2.88072 2.40748 -3.95517 0.0465658 0.0558532 0.0282687 
43 2 -3.88122 -1.15195 4.285 -0.0028599 0.0376017 -0.0565062 
44 2 -2.0177 4.93578 -4.41492 0.0199869 0.0106223 -0.0228927 
45 2 4.51754 -0.151191 -0.550709 -0.00288618 -0.0242133 0.0485815 
46 2 -4.35632 4.7774 2.82576 0.0150346 0.0257677 0.00891456 
47 2 3.93642 3.40619 -0.838565 -0.0244141 0.0305633 0.0105074 
48 2 -1.69769 3.44775 3.17242 0.01047 0.0172972 -0.00878185 
49 2 3.75969 -4.53507 -2.17288 -0.0112632 0.0228456 -0.0419955 
50 2 -1.56259 -5.29219 0.840409 0.00359852 -0.0757393 -0.0274375 
ITEM: TIMESTEP
500
ITEM: NUMBER OF ATOMS
50
ITEM: BOX BOUNDS pp pp pp
-5 5
-5 5
-5 5
ITEM: ATOMS id type x y z vx vy vz 
1 1 4.17748 -3.5994 0.865574 -0.045451 -0.0601389 -0.0698783 
2 1 -2.27445 3.30147 1.92959 -0.0339623 -0.0871296 0.0191072 
3 1 2.98317 -4.90394 -0.939336 -0.0176626 -0.0411907 0.0105889 
4 1 3.91898 3.59246 -2.71405 -0.039146 -0.00803029 -0.00714782 
5 1 -1.44021 -3.83098 1.33921 -0.0639084 -0.0239857 0.0109026 
6 1 -4.49427 3.65418 -0.309723 -0.0128961 0.0014527 0.0462913 
7 1 3.13088 -3.28653 -2.89089 0.0232867 0.0390801 -0.00437261 
8 1 -3.63734 -4.05819 1.38604 0.043724 -0.0529877 -0.0174246 
9 1 -5.06967 3.10454 2.58446 -0.0078021 -0.0309875 0.0214425 
10 1 -3.36652 -0.597654 1.67456 -0.00191147 -0.0036352 0.0371083 
11 1 -3.7843 1.33191 -4.09807 0.0550544 0.0062402 0.0250263 
12 1 -2.36854 -3.8043 -3.07001 0.0450383 0.0477286 0.00670587 
13 1 -4.64655 -2.13304 -4.4052 -0.0409087 0.0263512 0.021248 
14 1 -1.98008 -4.92992 3.99582 -0.0387905 0.00146795 -0.0276254 
15 1 5.04342 0.805081 0.373371 0.0605356 -0.0269586 0.070986 
16 1 -4.46439 0.31807 3.28883 -0.0365875 0.0500281 -0.0504916 
17 1 -0.226949 -2.73113 -1.15597 0.0231912 0.0158849 -0.00199875 
18 1 -3.28256 3.9297 -3.40175 0.0888763 0.0331477 0.0221412 
19 1 -3.0657 2.81997 4.30674 0.0426678 0.0481726 0.0808209 
20 1 3.84929 -1.32881 -0.971877 0.00483432 -0.00821554 -0.0384035 
21 1 -0.822101 4.79102 -0.406028 0.0172247 -0.0566815 -0.0775624 
22 1 -4.51089 -3.63365 -1.76932 -0.0202336 0.00175345 -0.0127176 
23 1 1.28634 -3.81979 1.03499 0.00821579 -0.00299405 -0.0307661 
24 1 -1.10921 -3.0068 -4.6162 0.0260397 -0.0652156 -0.00810159 
25 1 -1.57996 -1.98538 2.54697 -0.0210273 0.0122195 0.0123917 
26 2 -4.26575 2.27482 1.17787 -0.0109045 0.0412901 -0.0253421 
27 2 -4.78763 3.33562 -2.98863 -0.0326649 0.00781458 -0.0186769 
28 2 -5.1851 -2.65059 -0.0958231 0.00508772 0.0139178 -0.0605458 
29 2 2.84512 -3.3776 0.827324 0.0226234 -0.0276277 0.0359347 
30 2 -5.16003 -0.0273755 2.04122 -0.00716228 0.049566 0.0436092 
31 2 -4.41141 1.79617 3.92802 -0.0262391 -0.0109901 0.0536291 
32 2 -4.78632 5.00974 0.437679 -0.0016296 0.0385369 -0.0383458 
33 2 1.5127 -4.78336 -0.530563 -0.0118849 -0.00355631 -0.0294356 
34 2 -0.829132 -2.78296 -2.75343 0.0387674 0.034141 0.00754577 
35 2 4.12024 -2.01517 -2.60108 0.0188646 0.0178827 -0.0362826 
36 2 -3.04036 -2.3126 1.89397 -0.0145992 0.0157409 -0.0165 
37 2 -0.170183 -3.01287 1.71661 0.0233879 0.0151583 0.0305978 
38 2 -1.41828 -2.6502 3.80097 -0.0127395 0.00391861 -0.00343706 
39 2 -3.49846 -2.69717 -3.75948 0.0117672 -0.0412338 0.00700202 
40 2 -1.17808 -3.54339 -0.463761 -0.0334616 0.00301252 0.0400582 
41 2 -3.46202 -4.65174 -2.30404 -0.0286052 0.0123564 0.0207321 
42 2 -2.54793 2.64997 -4.09925 0.0068979 -0.0126759 -0.0483186 
43 2 -3.8982 -0.87966 3.96509 0.0178096 -0.0148452 0.0183936 
44 2 -2.04023 5.20662 -4.5044 -0.0119637 0.0555165 0.0248072 
45 2 4.38366 -0.157294 -0.403376 -0.0261151 0.0088802 -0.0323873 
46 2 -3.98467 4.9821 3.13518 0.0523874 0.00591302 0.0230439 
47 2 3.76044 3.68639 -0.835499 -0.00941501 0.0157863 -0.019665 
48 2 -1.79669 3.68526 3.36486 -0.028999 0.0188122 0.0452446 
49 2 3.72824 -4.65068 -2.54284 0.00313639 -0.0389996 -0.0273391 
50 2 -1.66028 4.05508 0.757133 -0.00274729 -0.0236916 -0.0325926 
