ITEM: TIMESTEP
100
ITEM: NUMBER OF ATOMS
50
ITEM: BOX BOUNDS pp pp pp
-5 5
-5 5
-5 5
ITEM: ATOMS id type x y z vx vy vz 
1 1 -3.84753 -2.61077 -3.60747 0.00630113 0.0122827 -0.0183906 
2 1 1.15276 -2.70837 -0.544609 -0.0173967 0.0155693 -0.0121911 
3 1 0.700287 0.193411 4.01642 0.0458131 -0.0529045 -0.0145829 
4 1 -5.15794 0.39663 0.537907 -0.057523 -0.000579049 -0.0238865 
5 1 -4.02052 2.5388 2.08504 -0.0172864 0.0238229 0.0271819 
6 1 -5.09778 3.61802 -1.09623 -0.025617 -0.00375759 0.0473003 
7 1 -3.30218 3.3514 -3.39277 0.0299101 0.0017542 0.0137614 
8 1 2.917 2.94122 0.452417 -0.00803547 0.0494547 0.0339209 
9 1 2.02047 -0.0603312 1.57058 -0.0115722 -0.0466268 0.0241633 
10 1 -4.9754 0.581016 -2.59466 -0.0180001 -0.0539823 -0.0197147 
11 1 -2.52965 2.50099 4.3905 0.00687876 -0.0451563 -0.0593963 
12 1 -4.30647 -0.411959 3.35279 0.00503997 -0.0131858 0.0154992 
13 1 -2.57634 2.64252 -0.513452 -0.00175749 -0.00147766 0.0138799 
14 1 -4.73526 -3.0468 2.62356 0.0250176 0.00819252 0.00815709 
15 1 2.96365 4.853 2.23329 -0.0334513 0.0253635 -0.0313895 
16 1 2.57543 -0.215145 -1.07501 0.0276227 0.0158053 0.0386889 
17 1 3.87106 1.41033 3.14479 0.0175845 0.0425833 0.0414793 
18 1 2.46938 4.69033 -1.04484 0.00639193 0.0688345 -0.0291589 
19 1 -3.16847 0.382071 -4.4434 0.0634725 0.0379554 0.0159931 
20 1 1.25799 2.21636 2.26339 0.0206206 -0.0216777 -0.00250794 
21 1 3.92104 -0.280639 -4.71542 -0.0467536 -0.0218822 0.02913 
22 1 3.14559 -1.77173 2.90521 0.0299413 0.00867861 0.0358833 
23 1 3.77302 -3.76881 0.581797 -0.00645946 0.0308743 0.00307002 
24 1 3.01554 1.91934 -1.94919 -0.0330929 -0.0577897 -0.0062512 
25 1 4.26226 -3.39628 4.7714 -0.0133392 -0.0565511 -0.0249786 
26 2 -3.83329 1.29313 -0.0154912 -0.0142518 0.0506039 0.0266521 
27 2 -5.02918 -3.27697 0.933811 0.00923789 -0.0144929 -0.00971849 
28 2 3.60816 -1.59638 4.37285 0.0372352 0.0310353 -0.0178781 
29 2 4.24003 3.0296 1.9933 -0.00712812 0.0386476 -0.00563956 
30 2 2.24788 1.38759 1.67934 0.00401283 -0.00737674 -0.0205222 
31 2 -4.63793 -3.8514 -4.58754 -0.0174328 -0.0553622 0.00117427 
32 2 1.98488 -3.91907 -0.694732 -0.0128263 -0.0234561 0.00380225 
33 2 2.13549 -1.03294 0.00616218 0.0292102 0.00408853 -0.0276732 
34 2 -4.42913 -0.872584 -3.47642 0.0422033 0.0182536 -0.0421597 
35 2 -2.55416 3.43824 -1.82715 0.00547173 -0.0123844 -0.025839 
36 2 4.24724 0.0224742 1.83458 -0.0170113 0.00186506 0.0223183 
37 2 1.74122 -1.76751 2.30883 0.0799373 0.0173359 -0.0424886 
38 2 3.5891 0.903773 -0.750249 -0.0465114 0.0253972 -0.0188866 
39 2 4.63258 2.56196 -2.34501 0.0215612 0.0142313 -0.00830018 
40 2 -0.0845051 1.58472 3.15566 -0.00814907 -0.03164 -0.0315292 
41 2 -3.09329 3.33468 3.26009 -0.0176355 0.0160048 0.0393165 
42 2 3.81095 -3.9169 3.02392 -0.00613223 0.00267496 0.0494119 
43 2 -3.11637 2.16903 -4.33781 0.0482896 -0.00181177 0.0322288 
44 2 3.74923 4.28662 -0.303207 -0.0271369 -0.00184702 0.0204509 
45 2 3.50515 -0.0628397 -2.86509 -0.00264612 0.0477523 -0.014134 
46 2 1.81693 3.8815 1.72862 -0.00195081 -0.0502101 0.00753219 
47 2 -4.82574 0.776121 3.95133 -0.00411302 -0.0297727 -0.0287999 
48 2 2.19146 0.976063 4.23865 -0.0529015 0.0157461 0.00720765 
49 2 -3.97481 -1.74323 3.63129 -0.0573744 0.0160598 0.0237222 
50 2 2.2457 2.91772 -1.1263 0.0217325 -0.0369429 -0.0459087 
ITEM: TIMESTEP
200
ITEM: NUMBER OF ATOMS
50
ITEM: BOX BOUNDS pp pp pp
-5 5
-5 5
-5 5
ITEM: ATOMS id type x y z vx vy vz 
1 1 -4.00219 -2.39136 -4.05687 -0.0316235 0.0268777 -0.0770449 
2 1 1.18212 -2.39823 -0.485232 0.0152263 0.0323226 0.0196378 
3 1 1.1177 -0.0585616 3.8062 0.0212417 -0.0102024 -0.0300579 
4 1 4.32286 0.674912 0.411924 -0.0238499 0.0539265 0.0451524 
5 1 -4.36822 2.97373 2.29048 -0.0340168 0.0558498 0.00621953 
6 1 4.68232 3.30922 -0.814762 -0.0194681 -0.05374 0.0112894 
7 1 -3.17802 3.28805 -3.16816 -0.0131265 -0.023131 0.00285661 
8 1 2.87388 3.04914 0.831799 0.00257497 -0.0280314 0.0224258 
9 1 2.11444 -0.443523 1.39512 0.0253701 0.00908744 -0.0634114 
10 1 -5.04097 0.150094 -2.66989 0.0183326 -0.0246139 -0.00772067 
11 1 -2.30539 2.18229 3.79154 0.0315944 -0.02047 -0.0449155 
12 1 -4.46619 -0.480554 3.27332 -0.0421416 0.000272505 -0.00629501 
13 1 -2.74003 2.46257 -0.51708 -0.0291388 -0.0255522 -0.0127077 
14 1 -4.38722 -3.05988 2.56321 0.0329167 -0.0230013 -0.0262037 
15 1 2.72825 4.90201 2.24133 -0.00842471 -0.00269106 0.0247229 
16 1 2.79763 -0.251804 -0.998126 -0.00263816 -0.0292016 -0.0145161 
17 1 3.77835 1.6979 3.36507 -0.0271059 0.00372954 0.00913775 
18 1 2.47932 4.86342 -1.48067 -0.00377876 -0.0259227 -0.0357195 
19 1 -2.83203 0.573934 -4.13082 0.00541084 -0.0179255 0.0421196 
20 1 1.17419 2.19403 2.49072 -0.026235 -0.0118583 0.0319327 
21 1 3.44019 -0.468209 -4.42067 -0.0511559 -7.85588e-05 0.021866 
22 1 3.48339 -1.73215 3.07971 0.0465409 -0.00271289 -0.00208015 
23 1 3.56301 -3.44679 0.30658 -0.0120772 0.0344565 -0.0355058 
24 1 2.91814 1.6737 -2.28652 0.00271186 0.0296512 -0.0499152 
25 1 4.0179 -3.84084 4.60929 0.000283867 -0.0392775 0.0286209 
26 2 -3.95231 2.01635 0.370964 -0.0172248 0.0873447 0.0458159 
27 2 5.20328 -3.26017 1.0864 0.0100918 0.011055 0.0263782 
28 2 3.77814 -1.3723 4.54659 -0.0135211 0.0117135 0.0535449 
29 2 4.2867 3.24075 2.0362 -0.0114673 0.00389996 0.0158833 
30 2 2.27789 1.20214 1.37423 -0.00815053 -0.023578 -0.025273 
31 2 -4.59778 -4.20109 -4.28779 0.00126327 -0.00228285 0.0392376 
32 2 1.83188 -3.78605 -0.492555 -0.00789263 0.0312657 0.0253422 
33 2 2.09806 -1.35122 -0.238794 -0.0202552 -0.0423039 -0.0326926 
34 2 -3.77089 -0.589914 -3.8638 0.0671776 0.0291213 -0.0171972 
35 2 -2.57348 3.31419 -1.82517 0.00542403 -0.0114684 0.0462701 
36 2 4.19568 -0.161481 2.07963 0.0151123 -0.0310654 0.0107539 
37 2 2.37862 -1.68794 2.14888 0.0364845 -0.0321616 0.0195164 
38 2 3.58572 1.10962 -0.672953 0.0348642 0.0100393 0.00701762 
39 2 4.96486 2.70575 -2.39629 0.0397082 0.0146301 0.0044783 
40 2 -0.135986 1.13484 2.85513 -0.00230729 -0.0514982 -0.0261758 
41 2 -3.3409 3.34273 3.37757 -0.0207664 -0.0150387 -0.00692734 
42 2 3.64316 -3.86543 3.1845 -0.0359959 -0.00133991 -0.0364455 
43 2 -2.53253 1.94171 -4.15432 0.0693403 -0.00766832 -0.0055448 
44 2 3.65221 4.55922 0.00676731 -0.00533753 0.0434514 0.0229766 
45 2 3.31904 0.423736 -3.09677 -0.0190404 0.0300419 -0.0221596 
46 2 1.76826 3.56035 1.84755 -0.01025 -0.00374739 0.0263295 
47 2 -4.82723 1.01917 4.00283 0.0091465 0.0621689 0.0202043 
48 2 1.97235 1.01603 4.2659 0.020279 0.00713424 -0.000427895 
49 2 -4.24262 -2.18773 3.70383 0.00811527 -0.068686 -0.00702211 
50 2 2.15998 2.94165 -1.54453 -0.022221 0.041209 -0.0437707 
ITEM: TIMESTEP
300
ITEM: NUMBER OF ATOMS
50
ITEM: BOX BOUNDS pp pp pp
-5 5
-5 5
-5 5
ITEM: ATOMS id type x y z vx vy vz 
1 1 -4.33177 -2.12726 -4.9949 -0.0324496 0.0304165 -0.0649819 
2 1 0.945627 -2.54016 -0.270104 -0.0315512 -0.0269488 0.0249074 
3 1 1.20903 -0.117029 3.40995 0.00722517 -0.00981191 -0.0486553 
4 1 4.40056 1.17297 1.31044 0.0263494 0.0319347 0.0916512 
5 1 -4.4485 3.48856 2.21509 -0.00670758 0.0411725 -0.0156031 
6 1 4.62654 2.79401 -0.795158 0.00687708 -0.0414272 -0.00521561 
7 1 -3.39715 2.96761 -3.12486 -0.016788 -0.0262041 0.0134238 
8 1 2.74085 2.77011 1.0349 -0.044775 -0.0124175 0.0256596 
9 1 2.41094 -0.495158 0.985889 0.0319309 -0.0272547 -0.00877505 
10 1 5.16711 0.101995 -2.8213 0.00925879 0.00629971 -0.0241736 
11 1 -2.11898 2.079 3.53012 0.00295971 -0.00143157 -0.00514212 
12 1 -4.7718 -0.216505 3.46164 -0.00402629 0.059606 0.0446731 
13 1 -3.11828 2.21164 -0.491156 -0.0436389 -0.0163383 0.0243057 
14 1 -4.08496 -3.50664 2.31738 0.0253814 -0.0466636 -0.0146918 
15 1 2.76604 4.84298 2.39791 0.00296066 -0.0264517 -0.00516157 
16 1 2.88188 -0.260319 -1.47375 0.0335755 0.0432446 -0.0817028 
17 1 3.54276 1.63495 3.54112 -0.0085994 0.00798069 0.0280027 
18 1 2.37609 4.61728 -1.4321 -0.00656568 0.016718 0.0548434 
19 1 -2.52101 0.643733 -3.87692 0.0557793 0.0214347 0.00532171 
20 1 0.8935 2.02257 2.67405 -0.0201705 -0.0057363 -0.000264561 
21 1 2.75973 -0.216554 -4.34909 -0.0695145 0.0316066 -0.0204483 
22 1 3.79566 -2.02825 3.0428 -0.00611803 -0.0634166 -0.0135105 
23 1 3.52718 -3.29788 0.177871 0.00300759 -0.00980756 0.0104497 
24 1 2.98592 2.26296 -2.66288 0.0145173 0.0564656 -0.0319543 
25 1 4.22018 -4.20785 4.87474 0.0275843 -0.0328045 0.0156408 
26 2 -4.28831 2.83635 0.752214 -0.0478915 0.0613878 0.0185633 
27 2 -4.94326 -3.06658 1.01781 -0.0349314 0.0249378 -0.0313025 
28 2 3.72585 -1.4754 4.92671 0.0101616 -0.0161956 0.0190614 
29 2 3.70499 3.05752 2.25849 -0.0529847 -0.0439244 0.0311019 
30 2 2.2721 1.10692 1.25558 0.0157382 0.00799056 0.00244024 
31 2 -4.76919 -3.91693 -4.03643 -0.0333082 0.0487034 0.00705634 
32 2 1.90776 -3.70201 -0.404423 0.0130709 -0.00621731 -0.00731258 
33 2 2.23515 -1.17577 -0.450763 0.0154955 0.0320307 -0.00530282 
34 2 -3.61246 -0.74287 -3.78735 -0.0232106 -0.0288014 0.0200943 
35 2 -2.45226 3.22512 -1.44572 0.0164094 -0.0134396 0.0176515 
36 2 4.47513 -0.357208 2.10364 0.0282171 -0.000214367 -0.000858236 
37 2 2.33537 -1.81041 2.23746 -0.0299924 0.0243596 -0.00244073 
38 2 3.92702 1.13678 -0.817147 0.0397009 0.00526997 -0.00395795 
39 2 5.32397 2.7765 -2.29646 0.025027 -0.00745933 0.0109884 
40 2 -0.0484436 0.670214 2.75472 0.0214168 -0.0365963 0.00942379 
41 2 -3.20945 3.1469 3.26169 0.0428579 -0.0134397 -0.022461 
42 2 3.37225 -4.00131 3.0471 0.00268404 -0.0152913 0.0285 
43 2 -1.92103 1.99905 -4.32101 0.0396155 0.00233065 -0.0217882 
44 2 3.57824 4.79604 -0.000214183 -0.00692544 -0.00447753 -0.0191667 
45 2 3.33015 0.507044 -3.05736 0.0148888 0.000845411 0.030782 
46 2 1.60298 3.57916 2.23319 -0.033817 -0.00229071 0.0418193 
47 2 -4.85092 1.42503 4.05148 -0.0223007 0.00298715 -0.00976935 
48 2 2.36795 1.06811 4.09059 0.0309152 -0.0139483 -0.028733 
49 2 -4.15886 -2.59329 3.74616 -0.00140543 -0.0261352 -0.0176447 
50 2 2.13368 3.40232 -2.06017 0.014066 0.0174226 -0.0653432 
ITEM: TIMESTEP
400
ITEM: NUMBER OF ATOMS
50
ITEM: BOX BOUNDS pp pp pp
-5 5
-5 5
-5 5
ITEM: ATOMS id type x y z vx vy vz 
1 1 -4.71933 -1.92004 -4.92437 -0.0402195 -0.0129856 0.0482138 
2 1 0.901813 -2.68497 -0.037323 0.019083 0.00301756 0.0195426 
3 1 1.48491 -0.413975 2.84981 0.0328932 -0.0210327 -0.0464037 
4 1 4.60994 1.37102 1.91501 0.00356282 0.0147299 0.0240052 
5 1 -4.49351 3.68843 2.18328 0.00302115 -0.00509975 0.0027596 
6 1 4.51375 2.63663 -0.787986 -0.0349495 0.0228565 0.0111094 
7 1 -3.27984 2.92818 -2.92422 0.0343626 0.00973995 0.034126 
8 1 2.25122 2.62463 1.21074 -0.02592 -0.0241365 0.000372745 
9 1 2.85587 -0.639254 1.00842 0.0608664 0.0102365 -0.00531635 
10 1 -4.88309 0.174651 -3.15549 -0.0199801 0.0168836 -0.0355473 
11 1 -2.08781 2.08219 3.7297 0.0043931 0.00811054 0.0401648 
12 1 -4.75697 0.0939918 3.84713 0.00252142 -0.0340153 0.0221873 
13 1 -3.34793 2.31599 -0.191294 -0.00111511 0.0322055 0.0309142 
14 1 -4.03476 -3.67392 2.0673 -0.0128055 0.0123276 -0.0442065 
15 1 2.74004 4.50523 2.41029 -0.00354451 -0.0277751 0.0251417 
16 1 3.1295 0.139315 -1.66027 0.00801617 0.0243367 0.0614906 
17 1 3.49445 2.09721 3.88093 -0.0335086 0.0531162 0.0535427 
18 1 2.30704 4.91386 -0.796012 -0.0197381 0.00810719 0.0289282 
19 1 -1.95943 0.59785 -3.90109 0.0515447 -0.0259144 -0.00357723 
20 1 0.75793 2.04104 2.66996 -0.0206391 -0.0138253 0.0200097 
21 1 2.41945 0.0443271 -4.68818 0.00480159 0.0123581 -0.0317506 
22 1 3.54351 -2.66641 2.84401 -0.0262026 -0.0487541 -0.0138854 
23 1 3.57398 -3.56595 0.27183 0.00146866 -0.0382884 -0.00689798 
24 1 3.33258 2.54576 -3.0611 0.0524217 0.00989614 -0.0430232 
25 1 4.39017 -4.44182 4.84983 0.0106063 -0.00682184 -0.0133308 
26 2 -4.71031 3.04248 0.675139 -0.0204245 -0.0150963 -0.0161314 
27 2 -5.30025 -2.94815 0.907279 -0.030891 -0.00234746 0.01583 
28 2 3.87761 -1.41227 4.88855 0.0115843 0.034729 -0.0278111 
29 2 3.6198 2.70379 2.54634 0.0155872 0.00777825 0.010093 
30 2 2.42461 1.14256 1.3466 0.00297149 -0.0121339 0.00739727 
31 2 -5.07949 -3.41498 -4.03905 -0.0247183 0.043188 -0.0105175 
32 2 1.91603 -3.69476 -0.490419 -0.00877522 0.0144343 0.00520966 
33 2 2.32662 -0.933604 -0.610089 0.00913878 0.0202456 -0.0214946 
34 2 -3.85618 -0.66978 -3.71189 -0.012125 0.0332932 -0.0162842 
35 2 -2.38154 2.85563 -1.32906 -0.00610202 -0.0565393 0.00572406 
36 2 4.73398 -0.168012 2.23627 0.0250156 0.0307495 0.0240204 
37 2 2.0421 -1.4222 2.21728 -0.0117985 0.0143197 -0.0111584 
38 2 4.33664 1.15581 -0.706984 0.0290543 -0.0274213 0.0198184 
39 2 -4.68352 2.53894 -2.24467 -0.0178772 -0.027866 -0.0159561 
40 2 0.114171 0.555431 2.91359 0.00436034 0.0147851 0.0144958 
41 2 -2.89283 3.18068 2.81673 0.0119372 0.0115949 -0.0605874 
42 2 3.62689 -4.22112 3.4674 0.0284458 -0.0415747 0.032553 
43 2 -1.79311 1.93743 -4.62654 -0.0126894 -0.0139318 -0.041491 
44 2 3.52196 4.49414 -0.0870537 -0.00254648 -0.0449989 0.018575 
45 2 3.50249 0.617262 -3.22608 0.0173006 0.0309215 -0.0711146 
46 2 1.15874 3.52913 2.49929 -0.0300923 -0.00619576 0.00456024 
47 2 -5.10377 1.50414 4.01061 -0.0160082 0.0485377 0.0163557 
48 2 2.26319 0.591072 4.03405 -0.0232776 -0.0481152 0.00821891 
49 2 -4.23459 -2.91302 3.23589 -0.0140512 -0.0227022 -0.034643 
50 2 2.32283 3.64347 -2.59264 0.0250409 0.035073 -0.0342316 
ITEM: TIMESTEP
500
ITEM: NUMBER OF ATOMS
50
ITEM: BOX BOUNDS pp pp pp
-5 5
-5 5
-5 5
ITEM: ATOMS id type x y z vx vy vz 
1 1 -4.9869 -1.99317 -4.37755 -0.0102089 0.0400748 0.0418107 
2 1 1.22166 -2.3002 0.200985 0.0602227 0.0670219 0.0320672 
3 1 1.53281 -0.111652 2.69923 0.00189378 0.028104 -0.0236288 
4 1 4.44296 1.54855 2.00116 -0.0281576 0.0162408 0.0038437 
5 1 -4.44701 3.48656 2.20616 -0.0019587 -0.0176064 0.00703256 
6 1 4.1588 2.96901 -0.586177 -0.0180105 0.032173 0.0281259 
7 1 -3.02848 2.90026 -2.46917 0.000591259 -0.0174141 0.0324631 
8 1 2.26193 2.41889 1.11699 0.0116384 -0.00792647 -0.00214788 
9 1 3.51562 -0.470307 0.931616 0.0612468 0.0020414 0.00696201 
10 1 -5.07625 0.567489 -3.44343 0.00900718 0.0567097 -0.0257337 
11 1 -2.22217 2.40005 3.81348 -0.0361568 0.0471259 -0.026871 
12 1 -4.94866 -0.198027 3.97397 -0.0235249 -0.00606663 -0.00217312 
13 1 -3.25705 2.62575 0.113648 0.029842 0.0181228 0.0288786 
14 1 -4.26359 -3.34788 1.53801 -0.0216878 0.0506103 -0.0294707 
15 1 2.72716 4.27399 2.80672 -0.00796809 -0.0161618 0.0332089 
16 1 3.22015 0.42342 -1.05175 -0.00631505 0.0311127 0.0317086 
17 1 3.19976 2.3601 4.29339 -0.00805365 -0.00557482 0.0162518 
18 1 1.99154 4.62243 -0.95875 -0.0358287 -0.0442333 -0.0444601 
19 1 -1.63806 0.349384 -3.99042 0.00471098 -0.0185387 -0.0191452 
20 1 0.525812 1.97991 3.08794 -0.0115061 0.0315239 0.05166 
21 1 2.8481 -0.137481 -4.65015 0.0555163 -0.0308794 -0.00166371 
22 1 3.45636 -2.92237 2.77807 0.00724441 -0.00552162 -0.0132664 
23 1 3.60611 -3.94245 0.0815915 -0.00251606 -0.0337514 -0.0169797 
24 1 3.88216 2.66612 -3.34257 0.0434666 0.024062 -0.0145506 
25 1 4.58447 -4.37054 4.80437 0.0240752 0.00608333 -0.0144883 
26 2 -4.59842 2.74719 0.679829 0.0139913 -0.0326964 0.0131459 
27 2 4.3376 -3.08474 1.18568 -0.0488212 -0.0251159 0.0201002 
28 2 3.96691 -0.901237 4.51515 0.0100887 0.0360597 -0.0185051 
29 2 3.66653 3.15998 2.52362 0.00227522 0.035097 -0.00482132 
30 2 2.40719 0.853497 1.36492 0.00565432 -0.0333892 -0.000985849 
31 2 4.67196 -3.41297 -4.11417 -0.0317665 -0.0501414 0.00939159 
32 2 1.96924 -3.68235 -0.298943 0.0166508 -0.0246769 0.0204476 
33 2 2.43344 -0.799376 -0.699635 0.00467982 -0.00137188 0.00422049 
34 2 -3.8112 -0.333812 -4.11973 0.000877007 0.0282998 -0.0511799 
35 2 -2.50539 2.28437 -1.31028 -0.0112867 -0.054075 0.0157218 
36 2 4.96552 0.108716 2.409 0.0175793 0.0277431 -3.3498e-05 
37 2 2.30797 -1.93599 1.76499 0.0357213 -0.0648284 -0.0475048 
38 2 4.4046 0.73757 -0.466398 0.00286594 -0.0330041 0.0378956 
39 2 -4.90859 2.45021 -2.64397 -0.0111198 0.00561976 -0.0424407 
40 2 -0.0685559 0.634401 2.9579 -0.0463571 -0.0161918 -0.00809439 
41 2 -2.88953 3.19264 2.29041 -0.0031125 -0.0100496 -0.0357544 
42 2 3.62536 -4.77381 3.46947 -0.0202489 -0.0455328 -0.00953009 
43 2 -1.98696 1.61807 -4.77784 -0.0143678 -0.0430467 0.0117221 
44 2 3.24642 4.11893 0.167624 -0.055147 -0.0325987 0.0120401 
45 2 3.44879 1.06501 -3.825 -0.0271593 0.0549025 -0.0436271 
46 2 1.20451 3.34419 2.38313 0.0311551 -0.0371246 -0.0175351 
47 2 4.85036 1.90641 4.35414 -0.00821921 0.0346953 0.0411341 
48 2 2.05967 0.585519 3.92487 -0.0076182 0.0421863 0.00461554 
49 2 -4.37736 -3.05549 3.24533 -0.014149 -0.0162286 0.0173493 
50 2 2.76824 3.86325 -2.816 0.0602721 0.00813679 -0.00720566 
