ITEM: TIMESTEP
100
ITEM: NUMBER OF ATOMS
50
ITEM: BOX BOUNDS pp pp pp
-5 5
-5 5
-5 5
ITEM: ATOMS id type x y z vx vy vz 
1 1 -2.60901 -4.11827 -0.564874 -0.0597459 0.0471111 0.0332612 
2 1 3.70962 -0.10402 2.95199 0.000735848 -0.0320047 -0.012123 
3 1 -2.92275 3.41495 2.94113 -0.0213402 -0.0598373 -0.000425391 
4 1 5.30905 0.828215 1.31187 0.0408131 -0.0202668 -9.38846e-05 
5 1 -3.36713 2.76087 0.281628 0.0069139 0.0327615 -0.0220542 
6 1 2.11662 1.57948 -0.567002 0.010209 0.00891557 0.0116262 
7 1 -4.91665 4.0692 4.68118 0.0105068 -0.0139864 -0.0507732 
8 1 2.12832 4.21681 2.75353 0.0193889 -0.0279307 -0.0196458 
9 1 2.00801 2.03462 1.6783 0.0678378 -0.0371829 -0.0423963 
10 1 4.72763 -2.3192 1.58676 0.0285603 0.0670648 -0.0526628 
11 1 -0.676105 3.79439 1.23386 -0.0303454 0.00946161 0.024434 
12 1 -4.17339 0.179927 4.26989 0.0310675 -0.016453 -0.0348363 
13 1 4.51591 -4.23999 -3.57497 -6.46752e-05 -0.00411476 -0.032273 
14 1 -3.02911 -4.20481 2.68753 -0.078457 0.0197882 -0.0311364 
15 1 -4.79614 5.09085 1.07371 0.0255456 0.0129931 0.0109558 
16 1 4.23449 1.95377 -3.16612 0.0313602 -0.0030946 0.0346153 
17 1 4.49166 3.03431 2.49724 0.00327144 0.0294228 0.0297146 
18 1 -3.20583 3.60994 -2.57935 -0.0253381 0.00410001 0.0540583 
19 1 3.97439 -3.88573 3.46353 -0.0241936 0.0474587 -0.0235082 
20 1 2.5537 4.81798 -4.62846 -0.0448963 0.00395007 0.0395401 
21 1 2.94589 2.02201 4.70832 -0.0181155 0.0251728 0.0258907 
22 1 3.88733 -1.9061 -4.78177 0.0562168 0.023231 -0.000587386 
23 1 3.51126 -4.0356 -0.034301 -0.0269907 0.0257213 -0.0304371 
24 1 4.49451 3.80879 -1.19109 -0.0336402 -0.0171741 0.0211892 
25 1 -0.28746 4.62236 3.93762 -0.0542761 0.0190054 0.00197935 
26 2 -4.50268 3.8208 0.0543584 -0.0218348 -0.00894764 0.00186575 
27 2 4.39746 -3.98518 -1.66608 0.0360997 0.0489773 0.032102 
28 2 3.68579 -3.49043 -4.61029 0.0243277 -0.0113989 -0.0286293 
29 2 4.55108 -0.947034 4.15239 -0.0229119 0.0396817 0.000397847 
30 2 -4.01368 1.64101 2.63688 0.0217127 -0.0248306 -0.032977 
31 2 4.42507 1.12704 -4.88278 -0.045943 -0.00897285 0.0222258 
32 2 -4.17765 -5.11669 -4.0735 -0.00544661 -0.0215105 0.0426324 
33 2 3.49336 -3.8816 1.82414 0.0328641 -0.0212349 -0.0014045 
34 2 -4.44372 2.95934 -2.34285 0.00143006 0.00153081 -0.0395316 
35 2 3.49582 1.44839 0.556843 -0.0305449 -0.0164558 0.0197646 
36 2 -3.35749 -3.99465 0.749513 -0.0148182 0.00222889 0.0285792 
37 2 0.540157 1.36141 0.427766 0.0233845 0.0063669 0.0276596 
38 2 4.68773 -0.652642 1.34689 0.00422821 -0.0225785 -0.0154234 
39 2 3.09354 2.49103 -2.1246 -0.0331234 -0.0153078 0.0203247 
40 2 -2.10734 4.88564 3.38834 0.0176968 -0.047937 0.0487002 
41 2 -2.27948 3.23277 1.34465 -0.000802173 -0.0528831 -0.0599731 
42 2 3.99007 3.50736 -4.47799 0.03163 0.0396002 0.0476876 
43 2 -4.6884 4.32954 2.80913 0.0400765 0.016852 -0.0645957 
44 2 2.38407 3.92284 1.06243 0.00111521 0.00415367 -0.0189021 
45 2 0.576417 4.77142 -4.84343 0.016057 0.0315408 -0.0465907 
46 2 2.81113 4.73819 3.76461 -0.0515922 0.00958343 0.0440257 
47 2 0.511652 3.87216 2.57033 0.0332906 -0.0593181 0.0520327 
48 2 2.86223 1.70509 2.93552 0.00755013 0.00851628 0.00294512 
49 2 -2.03295 4.66893 -1.36049 0.0273537 -0.0327888 -0.025961 
50 2 -4.03147 -2.95149 3.52953 -0.00682305 -0.00898032 0.00873335 
ITEM: TIMESTEP
200
ITEM: NUMBER OF ATOMS
50
ITEM: BOX BOUNDS pp pp pp
-5 5
-5 5
-5 5
ITEM: ATOMS id type x y z vx vy vz 
1 1 -3.14108 -3.89037 -0.431454 -0.0506881 0.00844705 -0.000961974 
2 1 3.5915 -0.193349 2.77042 -0.0254696 0.0144096 -0.0304059 
3 1 -3.00472 2.80023 2.72227 0.00561533 -0.0518984 -0.0398733 
4 1 -4.48696 0.627134 1.2214 0.00509962 -0.00550878 -0.0220083 
5 1 -3.28804 3.21318 -0.00895022 0.00642114 0.0452525 -0.0314118 
6 1 2.27076 1.73482 -0.706975 0.00330869 0.00991147 -0.0174818 
7 1 -4.72283 4.16781 4.62519 0.0189925 0.0328093 0.0412883 
8 1 2.01132 4.07436 2.34835 -0.0368059 0.00113457 -0.0224672 
9 1 2.40064 1.78153 1.54472 -0.00939721 -0.00624429 0.0407594 
10 1 5.16874 -2.11712 1.16581 0.0534132 -0.0516684 -0.032915 
11 1 -0.870352 3.67191 1.56039 -0.00283075 -0.0367028 0.0393001 
12 1 -4.1503 0.169498 3.92367 -0.0226941 0.0144563 -0.0391972 
13 1 4.74035 -4.41988 -3.5943 0.0173118 -0.0237372 0.0105244 
14 1 -3.62866 -3.93941 2.68135 -0.0175407 0.00399836 0.0245424 
15 1 -4.73001 -5.03029 1.12791 -0.0418089 -0.0271368 -0.0167818 
16 1 4.45342 2.09217 -3.0543 -0.0134846 0.00738621 -0.0312904 
17 1 4.36164 3.00806 2.47741 -0.0210672 -0.0279318 -0.0326232 
18 1 -3.26093 4.05636 -2.27111 -0.014918 0.0592699 -0.0136559 
19 1 3.72949 -3.61872 3.34152 -0.0194998 0.00484839 0.00131794 
20 1 1.9938 4.85346 -4.4611 -0.04346 0.00401058 -0.0128794 
21 1 3.01235 2.24361 4.81978 0.0239236 0.0227303 -0.00142556 
22 1 4.48323 -1.76635 -4.82841 0.0550752 -0.00267207 -0.0140788 
23 1 3.20263 -3.81385 -0.337056 -0.0107079 0.0142396 -0.0188209 
24 1 4.08099 3.4574 -1.13935 -0.0476564 -0.0458493 0.00722478 
25 1 -0.634306 4.73055 4.00325 0.00944532 0.00107041 0.0247452 
26 2 -4.84352 3.75839 0.0666168 -0.0277053 -0.00619842 -0.00798286 
27 2 4.57678 -3.73081 -1.18178 0.00555712 0.00693522 0.0573489 
28 2 3.90679 -3.38056 -4.91879 0.0325717 0.0398334 -0.0151155 
29 2 4.38507 -0.698906 3.95323 0.0049018 0.00629222 -0.0255417 
30 2 -3.98311 1.50911 2.45307 -0.0104045 -0.00286342 0.00632161 
31 2 3.97648 1.26925 -4.45671 -0.0362847 0.0308059 0.0662916 
32 2 -3.96363 4.80343 -3.73002 0.0483823 0.00203223 0.0260413 
33 2 4.14636 -3.78433 1.52601 0.0669117 0.0332777 -0.045766 
34 2 -4.48891 2.7238 -2.31808 0.0226147 -0.0187779 0.0575124 
35 2 3.39403 1.2717 0.573523 0.0422329 -0.0306751 -0.0293551 
36 2 -3.55132 -3.79644 1.14327 -0.0021656 0.040738 0.0109534 
37 2 1.13212 1.56083 0.64477 0.0754152 0.0264675 0.0114598 
38 2 4.72041 -0.583712 1.4441 -0.000395092 0.036306 0.0303118 
39 2 2.83971 2.28192 -1.76812 0.00149059 -0.00799651 0.0262504 
40 2 -2.01218 4.22126 3.65715 -0.0177535 -0.0835135 -0.00234042 
41 2 -2.07485 2.84841 0.988912 0.0292899 -0.0206476 -0.0104738 
42 2 3.80744 3.77039 -4.21086 -0.0449134 0.0157294 0.0126733 
43 2 -4.28176 4.25636 2.52556 0.0288571 -0.0495625 0.0229081 
44 2 2.57324 3.81861 0.881822 0.0331232 -0.015427 -0.0118348 
45 2 0.669776 5.12708 -5.07206 -0.0283983 0.0432052 0.000564713 
46 2 2.79177 4.78454 4.03433 0.038416 -0.010824 -0.035503 
47 2 0.509394 3.34989 2.93119 -0.0239246 -0.0347116 0.00898505 
48 2 3.1123 1.93512 3.1745 0.0422301 0.0410231 0.0217401 
49 2 -2.10091 4.37493 -1.53104 -0.0372405 -0.0192963 0.00756451 
50 2 -4.3286 -3.09501 3.43048 -0.0633857 0.0132233 0.00556222 
ITEM: TIMESTEP
300
ITEM: NUMBER OF ATOMS
50
ITEM: BOX BOUNDS pp pp pp
-5 5
-5 5
-5 5
ITEM: ATOMS id type x y z vx vy vz 
1 1 -3.69678 -3.88604 -0.536934 -0.0536193 -0.016944 -0.0231092 
2 1 3.52403 -0.156557 2.43578 0.0208426 -0.0243008 -0.0289517 
3 1 -2.96977 2.60626 2.39942 -0.0112932 0.0104029 -0.0153071 
4 1 -4.61276 0.805182 0.86091 -0.0334288 0.0199557 -0.0448035 
5 1 -3.1398 3.44816 -0.320625 0.0074992 -0.0146604 -0.0160492 
6 1 2.16054 1.53942 -0.508365 0.00939787 -0.0336575 -0.00113548 
7 1 -4.49967 4.35541 4.84377 0.0293813 -0.00501261 -0.0150133 
8 1 1.70047 4.12204 2.31644 -0.00327971 0.00914254 0.00368091 
9 1 2.26683 1.82614 1.99708 -0.0188642 0.0228958 0.0459149 
10 1 -4.54201 -2.57003 1.10551 0.00148257 -0.000503616 0.0261256 
11 1 -0.757814 3.12152 2.00081 0.00105147 -0.0710491 0.0303691 
12 1 -4.50492 0.417331 3.42031 -0.0408685 0.0185913 -0.0442116 
13 1 4.5666 -4.42754 -3.39762 -0.0533103 0.0281861 0.0259978 
14 1 -3.63015 -4.12921 2.8942 -0.00030425 -0.023136 0.0109316 
15 1 -5.38975 4.82605 1.03245 -0.0815127 -0.00357086 0.00210718 
16 1 4.36678 2.37198 -3.06726 0.000159936 0.0520849 0.0519448 
17 1 4.42716 2.79778 2.08697 0.0407285 -0.00110135 -0.0401935 
18 1 -3.47337 4.25783 -2.51898 0.00153925 -0.0299483 0.0126659 
19 1 3.73103 -3.69691 3.45755 0.0151883 -0.015211 0.015654 
20 1 1.94332 4.86725 -4.8411 0.0204067 0.00549779 -0.049905 
21 1 3.27329 2.58199 4.72138 0.0288993 0.0363577 -0.0127696 
22 1 4.95568 -1.92383 -5.27167 0.0395515 -0.0189545 -0.0729491 
23 1 3.34116 -3.73261 -0.328276 0.0298744 0.00845254 0.0187838 
24 1 3.8837 3.0668 -0.755368 0.0238516 -0.0246619 0.0751803 
25 1 -0.618528 4.47991 4.24208 -0.0218953 -0.0518443 0.0143876 
26 2 -4.86581 3.73564 0.0480095 0.0181681 0.00814671 0.0219045 
27 2 4.8064 -3.75885 -0.840792 0.0468017 -0.0129504 -0.00955297 
28 2 4.08201 -3.13502 -4.5879 -0.00811404 -0.0135746 0.0857426 
29 2 4.46833 -0.544525 3.94908 -0.00447692 0.0301543 0.0294086 
30 2 -4.14012 1.40419 2.58023 -0.00943113 -0.0041828 -0.0114917 
31 2 3.61044 1.34866 -4.05659 -0.0401424 -0.0113548 -0.00831852 
32 2 -3.78152 4.97355 -3.8577 -0.0303658 0.0353801 -0.063399 
33 2 4.30654 -3.50086 1.1965 -0.0438549 2.01311e-05 -0.00683529 
34 2 -4.25557 2.67478 -1.76447 0.0188899 0.00296053 0.0220879 
35 2 3.99756 1.1141 0.397597 0.0588724 0.00823661 -0.00357864 
36 2 -3.24984 -3.42316 1.01547 0.0587151 0.021366 -0.0131315 
37 2 1.48077 1.75511 0.697997 -0.0108945 0.0095572 0.0234754 
38 2 4.83094 -0.686604 1.72349 0.0291689 -0.03568 0.00830629 
39 2 3.08196 2.46386 -1.93731 0.0138028 0.0186655 -0.0166846 
40 2 -2.02781 3.41144 3.51827 0.0248419 -0.0690949 -0.0169631 
41 2 -2.02446 2.76117 0.995025 -0.0159327 -0.00247354 0.0112829 
42 2 3.53008 4.00795 -4.01893 -0.00623913 0.0413232 0.00908849 
43 2 -4.36293 3.79407 2.7961 -0.0393881 -0.0161257 0.020111 
44 2 2.96432 3.76607 1.00089 0.0431639 0.00475842 0.0310049 
45 2 0.285575 -4.43972 4.99995 -0.020663 0.0291257 0.00832059 
46 2 3.12995 4.73951 3.27407 0.0149852 0.013081 -0.083736 
47 2 0.344731 3.32717 2.80626 0.0192284 0.0303295 -0.0114002 
48 2 3.44142 2.23582 3.14897 0.00405743 -0.00138343 -0.0155917 
49 2 -2.608 4.40106 -1.09538 -0.0613594 0.0449713 0.0418234 
50 2 -4.8547 -2.90574 3.48416 -0.0113121 -0.00826721 -0.0212186 
ITEM: TIMESTEP
400
ITEM: NUMBER OF ATOMS
50
ITEM: BOX BOUNDS pp pp pp
-5 5
-5 5
-5 5
ITEM: ATOMS id type x y z vx vy vz 
1 1 -3.70826 -4.14255 -0.47108 -0.0120098 0.0225716 0.0652783 
2 1 3.67653 -0.631958 2.15443 -0.00579083 -0.0566426 -0.030071 
3 1 -3.20907 2.85214 2.4527 -0.00710265 0.0354359 0.0207224 
4 1 -4.44148 0.659842 0.565747 0.0424655 -0.0396867 -0.0130657 
5 1 -3.2344 3.04183 -0.126126 -0.0148809 -0.0286118 0.0321553 
6 1 2.37886 1.28099 -0.599256 0.0291605 -0.00252246 0.00475042 
7 1 -4.28619 4.14687 4.50567 0.0090944 -0.0220044 -0.0212459 
8 1 2.01823 4.38756 2.18253 0.0344013 0.0373903 -0.035426 
9 1 1.98682 2.13492 2.33571 -0.0343792 0.0256091 0.0137904 
10 1 -4.59701 -2.34144 1.596 0.00606869 -0.00113111 0.0519596 
11 1 -0.797646 2.37882 2.11797 0.00720244 -0.0633431 -0.000489277 
12 1 -4.74472 0.539635 3.32096 -0.000861386 0.0361919 0.00789921 
13 1 4.07093 -4.28526 -3.11995 -0.0238805 -0.0275758 0.0427213 
14 1 -3.62323 -4.34356 2.72598 0.00837954 -0.0231433 -0.0494293 
15 1 3.93646 4.90422 1.39038 -0.0290803 0.0285653 0.0659719 
16 1 4.21482 2.73999 -2.61974 -0.0233808 0.0222591 0.023837 
17 1 4.70835 2.82379 1.96906 -0.0051837 -0.00207122 0.0212909 
18 1 -3.43285 3.99349 -2.43541 0.00280701 -0.0027628 -0.00113034 
19 1 3.86501 -3.93186 3.45212 0.0239277 -0.0176889 -0.00961383 
20 1 2.12061 5.04324 -5.20162 0.00317299 0.0237733 -0.0182305 
21 1 3.59862 2.71116 4.62999 0.0269402 -0.0131419 -0.00595353 
22 1 5.16624 -1.9768 4.20536 0.00683391 0.00722258 -0.0228974 
23 1 3.66205 -3.47056 -0.281386 0.0307367 0.0441647 -0.0282006 
24 1 4.20441 2.85098 -0.0802123 0.0173915 -0.00311873 0.0340061 
25 1 -0.834354 3.95576 4.29676 -0.00373218 -0.0425552 -0.00539802 
26 2 -4.59916 3.83531 0.602961 0.0386277 0.0051551 0.0754247 
27 2 4.72343 -3.85174 -1.35216 -0.0544741 -0.00547586 -0.0698888 
28 2 3.91486 -3.11364 -3.97808 -0.0329932 0.0554611 0.00728857 
29 2 4.37962 -0.454926 4.18389 0.00480095 -0.0261114 -0.00822994 
30 2 -4.13855 1.58953 2.00077 -0.012484 0.0115479 -0.0717481 
31 2 3.3798 1.60546 -4.28129 -0.00726911 0.0684614 -0.023084 
32 2 -4.14427 5.1283 -4.29329 -0.0205383 -0.0106852 -0.0268582 
33 2 3.74134 -3.57642 1.21286 -0.0460718 0.00842048 0.00401433 
34 2 -4.09311 2.75059 -1.89107 0.00988104 0.0114458 -0.0245226 
35 2 3.95426 1.50571 0.262254 -0.0274154 0.0250608 -0.0132659 
36 2 -2.97149 -3.27407 1.01458 -0.0161847 0.0097954 0.0157777 
37 2 1.32316 1.71754 0.983799 -0.0177062 -0.0190725 0.0226597 
38 2 5.17226 -0.980301 1.62855 0.0220333 0.0067857 -0.0123906 
39 2 3.13443 2.63703 -1.54456 -0.0041214 0.0140956 0.0819275 
40 2 -1.66089 2.89652 3.4419 0.0337884 -0.0377604 0.00258979 
41 2 -2.24966 2.72629 1.05074 -0.0194544 -0.00469439 -0.00400911 
42 2 3.53189 4.42703 -4.24263 -0.0113084 0.0236906 -0.0500223 
43 2 -4.56699 4.03187 3.11862 0.0066815 0.0438209 0.0401439 
44 2 3.22095 3.60767 1.0896 -0.0105671 -0.0469016 -0.00873949 
45 2 0.275216 -4.56819 4.92869 0.015969 -0.0520804 -0.019622 
46 2 2.99811 5.11128 2.94817 -0.0373938 0.0442259 0.0241893 
47 2 0.766148 3.72615 2.8703 0.0409337 0.0261696 0.0152873 
48 2 3.34709 1.98954 3.04279 0.00124657 -0.0303319 0.00264229 
49 2 -2.99606 5.02049 -1.16514 0.0207594 -0.0119884 -0.0711508 
50 2 -4.64557 -3.32028 3.14264 0.0349605 -0.0462182 -0.0316448 
ITEM: TIMESTEP
500
ITEM: NUMBER OF ATOMS
50
ITEM: BOX BOUNDS pp pp pp
-5 5
-5 5
-5 5
ITEM: ATOMS id type x y z vx vy vz 
1 1 -3.72951 -4.04689 -0.00232633 0.012508 -0.0259304 -0.0170363 
2 1 3.54687 -1.01896 1.90019 -0.00306944 -0.0205217 -0.0194245 
3 1 -2.97547 3.07435 2.4844 0.0332085 -0.00175231 -0.0141942 
4 1 -4.24568 0.289285 0.652909 -0.0095167 -0.0191667 0.0258592 
5 1 -3.38247 2.96184 0.0824861 -0.00963068 0.00250631 0.0128732 
6 1 2.60951 1.52213 -0.267968 0.00479752 0.0337715 0.0573072 
7 1 -4.26502 4.0586 4.78924 -0.00982223 -0.0178443 0.0116326 
8 1 1.72664 4.63116 1.81467 -0.0603784 0.02524 -0.0227073 
9 1 1.83423 2.30611 2.36037 0.00682333 0.00658948 -0.00450233 
10 1 -4.2951 -2.45951 1.88301 0.0306002 0.0331351 0.0105118 
11 1 -0.754651 1.90381 1.93847 -0.000312418 -0.0339636 -0.0336209 
12 1 -4.86777 0.856243 3.32374 -0.0286721 0.000836512 -0.0175179 
13 1 4.00486 -4.44952 -3.16432 -0.00226897 -0.00251778 -0.0706239 
14 1 -3.37214 -4.70591 2.09343 0.0243942 -0.0464404 -0.0472351 
15 1 4.14344 5.10767 1.77314 0.0462978 0.0122023 0.00952881 
16 1 3.91552 2.79972 -2.55935 -0.0327943 -0.011344 -0.0141934 
17 1 4.35168 2.70535 2.22038 -0.0370321 -0.0114622 0.00077051 
18 1 -3.45215 4.14597 -2.69944 -0.0188439 0.0113815 -0.0536416 
19 1 4.27117 -3.98381 3.78102 0.0238578 -0.0206396 0.0825062 
20 1 1.93972 -4.8376 4.65244 -0.0324885 -0.00507743 -0.0171147 
21 1 3.59579 2.73146 4.4197 -0.0369634 0.0289385 -0.0158026 
22 1 -4.80407 -1.96131 4.34928 0.00496107 -0.00906141 0.0511183 
23 1 3.83713 -2.98722 -0.597508 0.00130363 0.0445629 -0.023982 
24 1 4.17018 3.1493 -0.0408122 -0.0139432 0.0416256 -0.00136418 
25 1 -0.467791 3.75184 4.17593 0.0704939 -0.0100036 -0.0227299 
26 2 -4.29341 4.06194 1.1668 0.0192024 0.0480215 0.00645083 
27 2 4.20042 -4.0069 -1.74437 -0.042224 -0.0199647 0.00889584 
28 2 3.57003 -2.59339 -4.1172 -0.024181 0.0330354 -0.0327691 
29 2 4.63457 -0.785251 3.70041 0.0305287 -0.0152905 -0.0745258 
30 2 -4.31611 1.65413 1.65634 -0.00763414 0.0150508 0.0083802 
31 2 3.45047 2.29422 -4.04897 0.0246125 0.056025 0.0693233 
32 2 -4.10768 -5.03393 -4.1946 0.0191944 0.00356542 0.0747481 
33 2 3.56395 -3.33018 1.08027 0.0144279 0.029347 -0.0311854 
34 2 -4.27092 2.80582 -1.99569 -0.0444441 0.0108055 0.00389464 
35 2 4.00502 0.971502 0.256689 0.0214448 -0.0870585 -0.00277333 
36 2 -3.4615 -3.35793 1.18264 -0.046822 -0.0262164 0.00594229 
37 2 0.981416 1.42696 1.2253 -0.0450743 -0.0283737 0.0314301 
38 2 -4.82189 -0.76038 1.50568 -0.0116762 -0.0114024 -0.013864 
39 2 3.09094 2.8828 -1.11463 -0.00109239 0.0331199 0.000973082 
40 2 -1.50507 2.57497 3.44329 0.00428732 -0.0212051 -0.00436091 
41 2 -2.09584 2.65863 1.09868 0.0448246 -0.00695941 0.00960114 
42 2 3.288 4.5222 -4.7638 -0.0134447 0.00834726 -0.0400693 
43 2 -4.47563 4.20603 3.14351 0.00728542 -0.0109407 0.0142078 
44 2 3.07767 3.58932 1.36531 -0.00180351 0.0356994 0.0551431 
45 2 0.443746 -5.25313 4.8078 0.00316908 -0.0705675 0.00651723 
46 2 2.6814 -4.52017 3.32604 -0.00287154 0.048359 0.0131228 
47 2 1.13014 3.59428 2.88312 0.0221497 -0.0543821 -0.01847 
48 2 3.58759 1.82777 3.15368 0.0377603 -0.00677682 0.0206274 
49 2 -2.67615 -5.09155 -1.68771 0.0373287 0.0155891 -0.0031794 
50 2 -4.52052 -3.39389 3.0498 -0.00845765 0.0171085 0.0255223 
