ITEM: TIMESTEP
100
ITEM: NUMBER OF ATOMS
50
ITEM: BOX BOUNDS pp pp pp
-5 5
-5 5
-5 5
ITEM: ATOMS id type x y z vx vy vz 
1 1 1.16074 5.27471 3.2062 0.000434623 0.0892201 -0.0116611 
2 1 4.91249 0.280141 -4.3778 -0.0351554 -0.00140764 -0.0110188 
3 1 -3.28966 -1.30998 -1.74394 -0.00529609 -0.00766476 -0.0379026 
4 1 4.539 -4.7862 3.45246 -0.0112354 -0.0530678 0.0258175 
5 1 1.96015 4.54448 -4.582 -0.016673 -0.0463621 -0.0128182 
6 1 0.0950806 2.56244 2.41007 -0.034818 -0.0545276 0.0169676 
7 1 -3.12206 4.18917 2.33596 -0.010681 -0.0142943 -0.00905693 
8 1 3.33887 -0.815469 3.17922 -0.0134202 0.0149223 0.0055569 
9 1 -0.152714 -3.23949 -2.05905 0.0136609 -0.0118253 -0.0181808 
10 1 3.35631 1.29924 -1.3589 0.0656559 0.0141328 0.0688654 
11 1 -4.43625 -2.04723 2.34943 0.0142109 0.0100339 0.0249699 
12 1 4.33722 -1.93974 -5.06996 -0.0363011 0.0420189 -0.0283426 
13 1 0.874292 4.85787 -1.0811 0.0120811 0.0376622 0.0381342 
14 1 2.46541 3.79437 1.36708 0.0320289 -0.0193567 -0.00287437 
15 1 -1.18256 -3.00175 0.364423 -0.0551459 -0.0731077 -0.027617 
16 1 -3.20443 -0.201261 4.78134 0.0800253 0.029628 -0.000137535 
17 1 -0.150968 -4.29889 -3.93852 0.000688086 0.0146987 -0.0283609 
18 1 1.36037 1.95072 -4.34567 0.0134682 -0.0239246 -0.00521473 
19 1 3.09637 -0.714754 -0.31881 -0.00711846 -0.0691587 -0.0642619 
20 1 -1.66596 -0.274522 2.60077 -0.0049585 0.0875656 0.0633507 
21 1 -1.06469 -3.17363 3.93746 0.0240787 0.00744942 0.0177137 
22 1 -1.01323 -0.746743 -4.61281 -0.0117162 -0.03955 0.0591644 
23 1 1.77406 -2.7669 4.46704 0.0764129 0.0321799 0.0604094 
24 1 -2.81143 -4.94499 -4.82258 -0.011337 -0.0340377 -0.0290359 
25 1 2.99318 -0.62499 -3.23694 0.037156 -0.00712155 -0.0270065 
26 2 1.29858 -4.26786 -2.22815 -0.0367716 0.0450811 0.0164968 
27 2 -3.70438 -4.72462 2.72221 -0.00225743 0.0261903 -0.0121192 
28 2 4.57981 -0.358013 4.16554 0.00470713 -0.029969 0.0056116 
29 2 1.0327 3.58138 3.2947 0.0604618 -0.00135986 0.0484127 
30 2 -2.82555 -1.57462 2.15977 -0.060374 0.0365178 -0.0296641 
31 2 2.93493 -1.66894 -4.89431 -2.43539e-06 -0.036827 -0.0441303 
32 2 3.7001 -3.68967 4.09607 -0.000497576 0.0424004 -0.0224096 
33 2 -2.23048 -1.94643 -0.944337 -0.0193252 -0.0364531 -0.0499234 
34 2 -3.59728 -2.23825 4.82863 0.00913092 -0.0460964 -0.00853702 
35 2 -0.779493 -3.46658 2.4011 0.0125901 -0.0039788 -0.00481312 
36 2 -1.0451 -4.6061 -2.94703 0.020428 0.0112136 -0.0409884 
37 2 -1.98412 0.217307 4.34289 -0.0151917 -0.0116997 -0.0108397 
38 2 0.904278 -4.23547 4.70247 -0.0625093 0.0458925 -0.0317138 
39 2 2.64643 4.25528 0.0945373 -0.00482742 -0.0413028 0.0557533 
40 2 0.139173 2.38445 0.578857 -0.0465502 0.0177855 -0.06565 
41 2 1.73872 3.28675 -4.13201 -0.021828 0.00187558 0.0171183 
42 2 -0.190684 -3.97824 -0.104941 -0.0582228 0.0210289 -0.00597423 
43 2 -3.81401 0.195962 -3.50304 -0.00800614 0.0376793 -0.00697412 
44 2 -0.980867 0.331545 -3.39291 0.073956 -0.00340556 -0.010099 
45 2 3.70663 3.80591 2.78832 0.00821828 -0.0368125 -0.00570744 
46 2 3.61669 -0.31907 -1.72985 -0.00421991 0.00436996 -0.0326224 
47 2 -1.67406 4.59683 4.62967 -0.0370679 0.0414367 0.0684501 
48 2 3.40632 1.2258 -3.6599 0.0118113 -0.0269513 -0.0147406 
49 2 -0.641886 -2.48978 -4.13107 -9.95979e-05 -0.00895219 0.00500585 
50 2 4.08948 -1.69618 1.70089 0.0604027 0.0282311 0.112598 
ITEM: TIMESTEP
200
ITEM: NUMBER OF ATOMS
50
ITEM: BOX BOUNDS pp pp pp
-5 5
-5 5
-5 5
ITEM: ATOMS id type x y z vx vy vz 
1 1 0.919362 -4.13133 2.87027 -0.0439554 0.0414565 -0.0565166 
2 1 4.62327 0.753049 -4.4443 0.00937085 0.0722142 -0.024407 
3 1 -3.28153 -1.28516 -2.25246 0.00792331 0.00134703 -0.0518315 
4 1 4.36228 -5.16845 3.49515 -0.0191137 -0.00308679 -0.0159731 
5 1 1.82916 4.3231 -4.97441 -0.0208137 -0.0399122 -0.0561725 
6 1 -0.0259155 2.31629 2.40112 0.0122486 0.00824462 -0.0200355 
7 1 -3.10965 4.07843 2.20738 -0.00534894 0.017727 -0.00756675 
8 1 3.33439 -0.607709 3.14866 0.00349415 0.0300645 0.0147675 
9 1 -0.367616 -3.26571 -2.18144 -0.0638409 -0.00488988 -0.0010512 
10 1 4.05203 1.48698 -1.06826 0.0623287 0.00403984 -0.000880926 
11 1 -4.08601 -2.05606 2.70334 0.0475926 -0.0107756 0.0426147 
12 1 4.66468 -2.15407 4.51194 0.0676088 -0.0589147 -0.0491198 
13 1 1.06021 5.13796 -0.51667 0.0188988 0.0224111 0.0559052 
14 1 2.84105 3.41933 1.92996 0.0139653 -0.0409034 0.0559057 
15 1 -1.98193 -3.46462 0.331746 -0.0729506 -0.0264756 -0.00577534 
16 1 -3.18947 -0.224208 5.14772 -0.0284985 -0.0216939 0.0373587 
17 1 -0.252114 -4.27753 -4.40485 -0.0426883 -0.0208133 -0.0139658 
18 1 1.58675 1.56459 -4.29957 0.0272713 -0.0442041 0.0237343 
19 1 3.09988 -1.65977 -0.854159 0.00464454 -0.0961539 -0.0559979 
20 1 -1.93479 0.282192 2.68985 -0.050823 0.020064 -0.0726605 
21 1 -1.00429 -3.16456 4.01413 -0.0164761 0.0103806 -0.00638375 
22 1 -0.925005 -1.12515 -3.76911 0.0336962 -0.0181167 0.0879114 
23 1 2.20537 -2.99353 5.07305 0.00639789 -0.0625811 0.0452508 
24 1 -3.33748 -4.92131 -4.90428 -0.0399607 0.034591 -0.00629976 
25 1 3.12042 -0.62391 -3.43689 -0.0152614 -0.00443221 -0.0095764 
26 2 1.13443 -3.75917 -2.19473 0.030005 0.0514555 -0.00264703 
27 2 -3.97945 -4.49216 2.80322 -0.0306648 -0.00903681 0.0179852 
28 2 4.78502 -0.44153 4.41184 0.0439473 0.0306505 0.0614692 
29 2 1.45088 3.64095 3.4901 0.0256877 0.016698 0.00116182 
30 2 -3.16748 -0.968949 1.92157 0.00300365 0.0782674 -0.0181648 
31 2 2.76749 -1.27043 -4.89373 -0.0145999 0.0871304 0.0361248 
32 2 3.60629 -3.46552 3.92477 -0.0188859 -0.00931276 0.00142722 
33 2 -2.35518 -2.40197 -1.37926 -0.0183253 -0.0386219 -0.0437583 
34 2 -3.59214 -2.55037 4.76822 -0.00785385 -0.0185812 -0.00479303 
35 2 -0.55464 -3.47612 2.49733 0.0249947 -0.00315716 0.0106747 
36 2 -1.04987 -4.53026 -2.89481 -0.0077447 0.00937782 0.0234951 
37 2 -1.5479 0.103949 4.18004 0.050177 -0.0162692 0.0385946 
38 2 0.720142 -3.66282 4.36182 0.0387587 0.0485554 -0.0303805 
39 2 2.42304 4.02415 0.152881 -0.0388806 -0.0122783 -0.0023133 
40 2 -0.285599 2.60154 0.357725 -0.0412952 0.0221064 0.0227235 
41 2 1.44679 3.12428 -3.73907 -0.0258021 -0.0178509 0.0335269 
42 2 -0.446562 -3.98527 -0.478474 -0.0125746 -0.010544 -0.0321684 
43 2 -3.91458 0.283869 -3.714 -0.00585455 -0.015317 -0.0203798 
44 2 -0.0693712 0.225469 -3.55502 0.103897 -0.0148614 -0.0190348 
45 2 3.91601 3.63906 2.72516 0.0538365 -0.00379389 0.0107125 
46 2 3.45807 -0.317847 -1.74957 -0.018463 -0.0115084 0.0322509 
47 2 -1.54338 4.9452 4.85625 0.0158424 0.0405834 -0.0164902 
48 2 3.28878 0.781998 -3.90579 -0.0569925 -0.025506 -0.032283 
49 2 -0.601784 -2.42182 -4.28852 0.000323128 0.00565976 -0.0250029 
50 2 4.40344 -1.37706 2.66563 0.0117542 0.00656726 0.0480357 
ITEM: TIMESTEP
300
ITEM: NUMBER OF ATOMS
50
ITEM: BOX BOUNDS pp pp pp
-5 5
-5 5
-5 5
ITEM: ATOMS id type x y z vx vy vz 
1 1 0.764887 -3.86353 2.45598 0.0142793 0.0137466 -0.00812958 
2 1 4.71806 1.30801 -4.64479 0.0024374 0.0332527 -0.00388822 
3 1 -3.27721 -1.38888 -2.64597 -0.0102324 -0.0141279 -0.0285681 
4 1 4.25372 5.25242 3.27363 -0.00849608 0.0495099 -0.0300499 
5 1 1.51353 3.71772 -5.27614 -0.0367087 -0.0668096 0.00838773 
6 1 0.187613 2.66469 1.98418 0.0321679 0.0564969 -0.0439158 
7 1 -3.3197 4.4612 2.26977 -0.0285928 0.0401943 0.0185744 
8 1 3.46355 -0.40151 3.72355 0.0290035 -0.00601601 0.0906344 
9 1 -0.977695 -3.45676 -1.87846 -0.0541819 -0.0233091 0.048916 
10 1 4.48651 1.2359 -1.23703 0.0260479 -0.0568366 -0.0301389 
11 1 -3.45651 -1.94841 2.76096 0.062879 0.0336943 -0.0287262 
12 1 4.83076 -2.62661 4.26951 -0.0467052 -0.034105 -0.00793064 
13 1 1.11465 -4.74655 -0.17055 -0.0134058 -0.00171468 0.0139233 
14 1 2.73007 3.1341 2.26698 -0.000638809 -0.0074314 0.0219679 
15 1 -2.33883 -3.61207 -0.0429322 -0.00204737 -0.00558898 -0.0603865 
16 1 -3.28605 -0.610234 -5.00184 0.00610272 -0.0367374 -0.0370781 
17 1 -0.683464 -4.51763 -4.19407 -0.036472 -0.0145928 0.0182958 
18 1 1.49917 1.18707 -3.85812 -0.0552389 0.000495506 0.048715 
19 1 3.06718 -2.44276 -1.49763 -0.0222078 -0.061325 -0.0709887 
20 1 -2.29557 0.456208 2.25356 0.0234738 0.0679639 0.00333502 
21 1 -1.2215 -2.85937 3.96396 -0.0131757 0.0354668 0.00723134 
22 1 -0.218028 -1.02238 -3.26715 0.101708 0.0167142 0.00135534 
23 1 2.23067 -3.28511 -4.70435 0.00406171 0.000545826 0.00625602 
24 1 -3.33078 -4.27185 -5.12602 0.0345854 0.0843405 -0.0416288 
25 1 2.93554 -0.605968 -3.37177 -0.0213499 0.0193039 0.0126406 
26 2 1.67295 -3.07637 -2.22157 0.0740513 0.0841603 0.00301577 
27 2 -4.11563 -4.69224 3.08047 0.00087991 -0.00126842 0.0421598 
28 2 5.31069 -0.114474 4.79981 0.0309427 0.0284134 -0.0135059 
29 2 1.64761 3.71719 3.11083 0.0102703 -0.0105817 -0.077649 
30 2 -3.17566 -0.520416 1.80246 -0.0448513 -0.0331683 -0.0242246 
31 2 2.49732 -1.13953 -4.87643 -0.0109115 -0.046913 -0.034929 
32 2 3.52779 -3.79196 4.2567 0.0241763 -0.0450621 0.0602181 
33 2 -2.58895 -2.53468 -1.84582 -0.0190274 0.0040106 -0.0404909 
34 2 -3.62527 -2.72481 4.62338 0.0124415 -0.0117182 -0.0230558 
35 2 -0.778051 -3.40096 2.38221 -0.0650285 0.0250724 -0.0239688 
36 2 -1.19202 -4.60647 -2.92996 -0.0211108 -0.0288759 -0.0132166 
37 2 -1.48589 -0.0862317 4.344 -0.0387131 -0.0241185 -0.00245294 
38 2 1.29725 -3.56784 4.21494 0.0349644 -0.0256811 -0.0217044 
39 2 1.96785 4.045 0.358019 -0.0484492 0.0164241 0.0431078 
40 2 -0.701797 2.76695 1.05238 -0.0533657 0.0119376 0.0917161 
41 2 1.30977 3.00391 -3.79535 -0.00980912 -0.00442672 -0.0439338 
42 2 -0.597839 -4.05003 -0.377798 -0.0166419 0.000303638 0.0374162 
43 2 -3.82564 0.187063 -3.20432 0.0358958 -0.0157407 0.111938 
44 2 0.950969 -0.00241005 -3.56518 0.0718256 -0.0478549 0.0344028 
45 2 4.51088 3.4373 2.86366 0.0345529 -0.0319534 0.00803135 
46 2 3.36156 -0.599498 -1.39212 0.000822036 -0.0427826 0.0187691 
47 2 -1.72149 5.41764 4.40665 -0.0441512 0.0501713 -0.0552091 
48 2 3.04833 1.19115 -4.14878 0.0615468 0.0730464 -0.020581 
49 2 -0.816196 -2.47177 -4.40179 -0.0370534 -0.0031212 0.00854698 
50 2 4.62641 -1.65621 2.89982 0.0294501 -0.0434039 0.0267963 
ITEM: TIMESTEP
400
ITEM: NUMBER OF ATOMS
50
ITEM: BOX BOUNDS pp pp pp
-5 5
-5 5
-5 5
ITEM: ATOMS id type x y z vx vy vz 
1 1 0.700704 -3.77585 2.64378 -0.03608 0.00260209 0.0143283 
2 1 4.9551 1.57696 -4.7001 0.0639154 0.0301039 -0.0230887 
3 1 -3.37131 -1.47668 -2.80733 0.00254681 -0.011859 0.00173025 
4 1 4.17444 -4.63342 3.02953 -0.00544446 -0.0169069 -0.00226743 
5 1 1.27946 3.29976 4.4303 -0.00814669 -0.00779783 -0.083122 
6 1 0.668414 3.4449 1.61987 0.00947022 0.0818748 -0.0560834 
7 1 -3.41515 4.63909 2.49056 0.00872117 0.00173495 0.0338702 
8 1 3.89968 -0.621047 4.58881 0.0632604 -0.0175297 0.0588165 
9 1 -1.20706 -3.66923 -2.01483 0.01093 -0.0115739 -0.074482 
10 1 4.72128 0.299095 -1.64857 0.0316516 -0.128675 -0.0454741 
11 1 -3.17802 -1.78838 2.472 -0.000510386 -0.0213121 -0.011693 
12 1 4.47254 -2.81796 4.31507 -0.00397275 -0.0176104 0.0300566 
13 1 0.723422 -4.79878 -0.128861 -0.0640401 0.000703176 -0.00308449 
14 1 3.23516 3.152 2.3068 0.0669239 0.00524179 -0.00288651 
15 1 -2.45339 -3.58903 -0.239103 -0.0262921 0.0142335 0.02936 
16 1 -3.17261 -0.870164 4.64369 -0.0235513 -0.00993702 -0.0232807 
17 1 -0.993106 -4.48657 -4.43981 -0.03181 0.0108634 -0.0304601 
18 1 1.16367 1.67039 -3.46959 -0.0137028 0.0390851 0.0504298 
19 1 3.39583 -2.70716 -1.81474 0.0702577 0.00999795 -0.00115834 
20 1 -2.07886 1.08054 2.36526 0.0156112 0.0580183 0.0143861 
21 1 -1.19121 -2.5485 4.06356 0.0152631 0.0370357 0.00166222 
22 1 0.440507 -1.42645 -3.50246 0.0342702 -0.0934246 -0.0306684 
23 1 2.25506 -3.13218 -4.79216 -0.00573798 0.0124765 -0.0245755 
24 1 -3.15943 -3.75674 4.43749 -0.0368899 0.0322672 -0.0355217 
25 1 2.81219 -0.509942 -3.26329 0.0447232 -0.0186436 0.0189425 
26 2 1.77363 -2.43073 -2.6319 -0.0444152 0.0315889 -0.0875792 
27 2 -4.27268 -4.41977 3.52066 -0.0264608 0.0279227 0.0190286 
28 2 -4.65594 0.242231 4.60138 -0.0137927 0.0334865 -0.00585972 
29 2 1.45544 3.47737 2.8281 -0.00883522 -0.0446867 0.0489916 
30 2 -3.31677 -0.659747 1.58102 0.0152418 0.0297497 -0.036108 
31 2 2.80675 -1.70547 -5.15611 0.0572883 -0.05841 -0.00770082 
32 2 3.91847 -4.16801 4.98929 0.0239945 -0.0241259 0.0738128 
33 2 -2.62452 -2.6632 -1.93807 0.00632526 -0.0332088 0.0215511 
34 2 -3.50286 -2.1584 4.47143 0.0223802 0.0892973 0.00760888 
35 2 -1.31126 -2.93083 2.24716 -0.0436916 0.0731007 0.00290013 
36 2 -1.43256 -4.92329 -2.72743 -0.0145837 -0.0318319 0.0144939 
37 2 -2.09925 -0.378065 4.07405 -0.0353441 -0.01778 -0.0660707 
38 2 1.2541 -3.95386 3.86425 -0.0132353 -0.0384135 -0.0130689 
39 2 1.47248 4.24384 0.812057 -0.0488289 0.030341 0.0232565 
40 2 -1.553 2.76993 1.91814 -0.085546 -0.0164501 0.0986523 
41 2 1.0298 2.82919 -4.13341 -0.0481489 -0.0190143 -0.0164721 
42 2 -0.786627 -4.014 -0.18932 -0.0199299 0.00167918 -0.0111558 
43 2 -3.58801 -0.0711864 -2.01158 -0.00749581 -0.0250072 0.114799 
44 2 1.5803 -0.22721 -2.98458 0.00291319 0.0505033 0.0548826 
45 2 4.53452 3.19098 2.80759 -0.0149222 -0.00672905 -0.0177647 
46 2 3.58323 -0.965802 -1.54132 0.0569074 -0.025246 -0.0443928 
47 2 -1.77755 -4.27995 4.09632 0.0525661 0.00183263 -0.00361402 
48 2 3.584 1.66965 -4.25459 0.0111818 0.020365 0.0105706 
49 2 -1.04587 -2.47732 -4.23058 0.00183638 -0.00323384 0.0182267 
50 2 4.79241 -2.06301 3.14302 -0.00677078 -0.0266976 -0.00472437 
ITEM: TIMESTEP
500
ITEM: NUMBER OF ATOMS
50
ITEM: BOX BOUNDS pp pp pp
-5 5
-5 5
-5 5
ITEM: ATOMS id type x y z vx vy vz 
1 1 0.0908769 -3.7905 2.62904 -0.0699459 -0.0086914 0.0111434 
2 1 5.35606 2.06059 -4.97724 -0.00225504 0.0599639 -0.0276846 
3 1 -3.00933 -1.7435 -2.53049 0.0722149 -0.0459689 0.042933 
4 1 4.14571 -4.87549 3.2479 0.00146126 -0.0350273 0.0339195 
5 1 1.06853 3.32358 4.4327 -0.0227255 0.0163586 0.0427778 
6 1 0.376266 3.64174 1.68735 -0.0217715 -0.0110307 0.0400809 
7 1 -3.19437 4.40741 2.91861 0.0264193 -0.0567824 0.0477647 
8 1 4.39932 -0.724557 4.73508 0.0075231 -0.0180927 -0.0165348 
9 1 -1.23074 -3.55941 -2.56796 -0.0283019 0.0159131 -0.0170543 
10 1 5.2556 -0.635799 -1.81202 0.0370896 -0.0345219 0.00651006 
11 1 -3.22102 -1.79764 2.29757 -0.00485296 0.0414991 -0.0288757 
12 1 4.55979 -3.04229 4.67218 0.00842288 -0.021938 0.0342806 
13 1 0.0747588 -4.6306 -0.365918 -0.0329772 0.0135949 -0.0399135 
14 1 3.18792 2.98873 2.10903 -0.0349039 -0.0343429 -0.0183556 
15 1 -2.46976 -3.30099 -0.029877 0.0222051 0.0401968 4.79877e-05 
16 1 -3.41659 -0.142533 4.46982 0.0284116 0.0759537 -0.0408284 
17 1 -1.18566 -4.54541 -4.51275 -0.00286777 -0.0304639 0.0103518 
18 1 1.19791 1.79208 -2.91812 0.0053297 0.0424847 0.025958 
19 1 3.82333 -2.68156 -1.85089 0.0162585 -0.0587577 -0.00243472 
20 1 -2.05809 1.2633 2.56578 -0.0122728 -0.0399198 0.0218415 
21 1 -1.19452 -2.02585 4.00706 -0.0276717 0.0663581 -0.00949601 
22 1 0.36771 -2.09711 -3.78505 -0.049066 -0.0183895 -0.0300187 
23 1 2.14185 -3.33303 -5.01965 0.000650258 -0.0395237 -0.0115988 
24 1 -3.38763 -3.47231 4.20517 0.0143071 -0.00233902 -0.0245186 
25 1 2.92492 -0.721684 -3.00729 -0.052022 -0.00434314 0.0100006 
26 2 1.83249 -2.56606 -3.49194 0.0653241 -0.0448747 -0.0661172 
27 2 -4.38863 -4.38371 3.36989 0.0137088 -0.0178475 -0.0270289 
28 2 -4.65534 0.434855 4.6978 0.021302 0.0242632 0.0175306 
29 2 1.67252 2.91788 2.63751 0.0373787 -0.0507302 -0.0823124 
30 2 -3.12276 -0.328437 1.27544 0.00979741 0.027962 -0.0196066 
31 2 3.53397 -1.99255 5.02258 0.0750714 0.00824344 0.0374159 
32 2 3.95649 -4.21844 5.6113 -0.00402056 0.00220173 0.0447123 
33 2 -2.64146 -2.97167 -1.66289 -0.0141063 -0.0154559 0.0179168 
34 2 -3.42587 -2.23166 4.81118 -0.00320344 0.00574186 0.065944 
35 2 -1.75599 -2.24701 2.43686 -0.0364331 0.0264832 0.0275662 
36 2 -1.42949 -5.22718 -2.96981 0.0164606 -0.00787291 -0.0572645 
37 2 -1.97373 -0.234856 3.25249 0.0199585 0.0443962 -0.0457566 
38 2 1.24858 -4.20099 4.03441 -0.000711309 -0.0113689 0.0142976 
39 2 1.24867 5.02484 0.592062 -0.0308162 0.0848518 -0.0210673 
40 2 -2.41809 2.81942 2.92182 -0.0871307 0.046573 0.0994794 
41 2 0.496065 2.81199 -4.47853 -0.0536793 -0.0107672 -0.0148844 
42 2 -1.11391 -3.96868 -0.394948 -0.0621123 0.0208162 -0.0147626 
43 2 -3.6386 -0.432863 -1.19879 0.0493135 -0.0446601 0.0548623 
44 2 1.34969 0.55744 -2.65548 -0.00930661 0.0420165 0.0288018 
45 2 4.83537 3.44681 2.80015 0.0309725 0.0496403 0.00591509 
46 2 4.10157 -1.42211 -2.30683 0.031935 -0.0470444 -0.105769 
47 2 -1.4327 -4.2434 4.02541 0.00768455 0.0109793 -0.0371589 
48 2 3.72093 1.67865 -4.04871 0.0248981 -0.00845493 0.0247106 
49 2 -0.800318 -2.61918 -4.0674 0.0166215 -0.0325159 0.0144025 
50 2 4.69321 -2.27228 2.9279 0.00243379 -0.014766 -0.0221224 
