ITEM: TIMESTEP
100
ITEM: NUMBER OF ATOMS
50
ITEM: BOX BOUNDS pp pp pp
-5 5
-5 5
-5 5
ITEM: ATOMS id type x y z vx vy vz 
1 1 -1.83569 -4.94989 -1.79054 -0.00423272 -0.0368309 -0.0321232 
2 1 0.634358 -1.41986 0.25259 0.0393159 0.0286241 -0.00555542 
3 1 0.983339 2.18343 -3.8002 -0.0306819 0.034974 -0.019303 
4 1 -4.21889 3.62771 2.95771 -0.00179245 0.0363145 -0.0501365 
5 1 -0.553723 4.42093 -4.33069 -0.00744883 -0.0271702 -0.0122193 
6 1 0.927453 -4.10198 -1.53559 0.00866924 -0.0084124 0.0424985 
7 1 -4.22052 -0.127189 -3.52676 -0.0234633 0.0477342 -0.0370467 
8 1 1.89084 -0.637712 -3.99469 -0.0078327 -0.0261573 0.00734635 
9 1 2.36004 2.5954 3.88741 0.0206083 0.0230098 0.0335224 
10 1 4.06828 -3.52503 3.46862 0.0143326 -0.0238023 -0.0437092 
11 1 1.4749 -4.18127 2.28216 -0.0127844 -0.0470039 -0.0227673 
12 1 -3.77799 -1.42798 2.51529 -0.027547 -0.0325581 -0.0197383 
13 1 -1.2453 -2.0533 5.08851 -0.00910713 0.00731855 0.00461004 
14 1 2.31099 5.35415 -5.35291 0.0567644 -0.0111177 -0.0682887 
15 1 1.8163 0.808704 1.65252 0.0446901 -0.00931242 0.0362403 
16 1 -2.30532 0.137657 4.72441 -0.0401909 0.0113173 0.0144739 
17 1 -2.74954 -3.96965 3.98064 -0.0147051 -0.0506531 0.00221806 
18 1 -0.536424 -0.246699 -2.63758 0.0245338 -0.0660621 0.00965195 
19 1 2.74528 -2.92055 0.156914 -0.0195448 0.0512678 0.0663607 
20 1 4.17197 2.19852 -4.23071 0.0330093 0.0427069 0.0369053 
21 1 0.301842 2.7167 3.45941 0.0748384 0.0425575 0.00755885 
22 1 -2.05478 2.20092 -4.23296 0.0658302 0.0132731 0.0546831 
23 1 3.69553 0.342445 3.59595 0.0102318 -0.0489176 0.00494106 
24 1 1.79625 -1.93691 2.81195 0.0244217 -0.0163715 -0.0108917 
25 1 0.860274 -3.59998 -4.45162 0.0303459 -0.0317251 -0.0472548 
26 2 2.72896 4.86136 2.00052 0.0355284 0.0591182 0.0354189 
27 2 -4.52392 -2.52731 3.48731 -0.0494068 0.0346477 -0.00778431 
28 2 -1.47195 -3.20353 -1.82625 -0.0499422 -0.000310633 0.0471631 
29 2 -4.10212 2.777 -3.76715 -0.0177407 -0.0383874 0.0481088 
30 2 4.47343 0.788687 -4.16321 0.0434594 -0.00369965 0.0583519 
31 2 3.09943 -1.01385 -4.66567 -0.0485958 -7.24672e-05 -0.00341652 
32 2 2.48081 1.89891 -4.57787 0.0586536 -0.0310648 -0.0327174 
33 2 1.55154 -3.71931 4.15045 0.0518757 -0.0630928 -0.0358314 
34 2 -1.48555 1.89331 3.69968 -0.00506938 -0.0471527 0.0100932 
35 2 -0.242941 3.12623 -4.28288 0.025474 0.00961567 0.0181404 
36 2 0.666429 1.04926 -2.72341 -0.0749009 0.0094342 -0.0205527 
37 2 1.43566 -2.20578 -0.756181 -0.0256763 -0.0117571 -0.0226461 
38 2 -0.0217637 4.8686 -2.0007 0.0154129 0.0838998 -0.0354624 
39 2 -2.37118 0.675129 -3.51278 -0.0244006 0.0455163 -0.00753524 
40 2 -0.0854831 -1.17275 -4.2069 -0.0508335 -0.0085492 0.00431224 
41 2 -1.36029 -4.1551 -4.79156 -0.0979004 -0.0350301 -0.00857735 
42 2 3.10165 -4.25111 -2.92743 0.0601528 0.0305753 0.097214 
43 2 -4.4959 5.05653 3.3316 -0.0593286 0.0601864 0.0242988 
44 2 0.800303 0.200424 0.523922 -0.00547189 -0.00372376 -0.0126862 
45 2 2.63596 0.0438754 2.69438 0.0904049 0.000515356 -0.0232312 
46 2 -0.449635 -3.17509 2.62627 -0.00022946 0.0459356 0.00517527 
47 2 1.36565 3.73803 3.75114 0.00225278 -0.0300454 -0.00977415 
48 2 4.17657 3.31025 4.78967 -0.0139685 -0.00793347 -0.0519079 
49 2 -2.80934 -1.15385 4.08624 -0.085871 -0.0491673 -0.0133511 
50 2 2.85973 -2.71049 1.85247 -0.0221387 0.0475391 -0.0147791 
ITEM: TIMESTEP
200
ITEM: NUMBER OF ATOMS
50
ITEM: BOX BOUNDS pp pp pp
-5 5
-5 5
-5 5
ITEM: ATOMS id type x y z vx vy vz 
1 1 -1.577 -4.84202 -2.11091 0.0441463 0.0617318 -0.0229835 
2 1 0.823639 -1.1009 0.0304353 -0.00153778 0.00720467 -0.0410238 
3 1 1.02832 2.14188 -3.76126 0.0320017 -0.0417879 0.0160495 
4 1 -4.5582 4.08772 2.72867 -0.0674893 0.0437893 -0.00138277 
5 1 -0.845679 4.68804 -4.47384 -0.0359047 0.0414952 -0.0117649 
6 1 1.07873 -3.90765 -1.23065 0.0137861 0.0286349 0.000782477 
7 1 -3.89199 0.242919 -3.67227 0.0888464 0.0237153 0.0247493 
8 1 1.63277 -0.674837 -3.8959 -0.0225208 0.0124139 -0.0071214 
9 1 2.98662 2.6967 4.3493 0.0115974 -0.0641367 0.0360149 
10 1 4.34936 -3.64332 2.71447 -0.00701422 0.0101465 -0.0984139 
11 1 1.32691 -4.71174 2.306 0.00318047 -0.0394707 0.0370521 
12 1 -3.95827 -1.81333 2.72665 -0.0045241 -0.0287162 0.0532854 
13 1 -1.4611 -2.15401 -5.01966 -0.0381499 -0.017316 -0.0281961 
14 1 3.36027 -5.459 3.93034 0.0962003 -0.0360986 -0.095483 
15 1 2.06167 0.631101 1.68463 0.014445 -0.023796 -0.0146569 
16 1 -2.54295 0.359891 4.62112 0.00810206 0.0322814 -0.0442407 
17 1 -3.08974 -4.35864 4.04818 -0.0640319 -0.024033 0.00673708 
18 1 -0.347679 -0.685263 -2.70507 -0.00491162 -0.01858 -0.0136902 
19 1 2.72572 -2.50649 0.42938 0.0177946 0.0168758 -0.0413916 
20 1 4.63879 2.59686 -3.87462 0.0573654 0.017082 0.0315051 
21 1 0.0355556 2.82837 3.52833 -0.0741545 -0.015115 0.0216092 
22 1 -1.51158 2.202 -3.64144 0.040939 -0.0344128 0.0574341 
23 1 3.9207 -0.328116 4.27369 0.00853189 -0.0816112 0.0947635 
24 1 1.99441 -1.96203 3.12311 0.0119683 -0.00289892 0.081385 
25 1 1.01427 -3.57868 -4.87227 0.0293763 0.0181532 -0.0490695 
26 2 3.14216 5.42986 2.3242 0.0545776 0.0399632 0.0151535 
27 2 -5.3961 -2.1963 3.15145 -0.110556 0.0459709 -0.0496228 
28 2 -2.07922 -3.35999 -1.36536 -0.0655918 -0.0366151 0.0401926 
29 2 -4.0433 2.60131 -3.2397 0.0201367 0.0171101 0.0545569 
30 2 4.51322 0.763196 -3.79105 -0.0571912 0.0104314 0.00818627 
31 2 2.63627 -1.20747 -5.06852 -0.0541772 -0.0260901 -0.0644914 
32 2 2.53714 1.56356 -4.88242 -0.0367428 -0.0381352 -0.0108374 
33 2 1.86572 -3.82349 3.88661 0.0148694 0.0137328 0.00876384 
34 2 -1.49336 1.40665 4.03304 0.00385664 -0.0443082 0.0419006 
35 2 -0.285498 3.0998 -4.25417 -0.0375073 0.0254131 -0.0144724 
36 2 -0.0600891 0.912233 -2.99917 -0.0550908 -0.0285151 -0.0285887 
37 2 1.28287 -2.58606 -0.750957 -0.00781801 -0.0310627 0.0328611 
38 2 -0.0166587 5.43494 -2.59772 -0.00590826 0.0376749 -0.0786654 
39 2 -2.5583 0.821882 -3.87918 -0.0135065 -0.0163234 -0.0538213 
40 2 -0.458719 -1.35569 -4.05911 -0.0178903 -0.0374908 0.0180053 
41 2 -2.14339 -4.51273 -4.90233 -0.0427715 -0.0379852 -0.00186615 
42 2 3.4411 -3.94796 -1.98686 0.0141024 0.0283408 0.098312 
43 2 -4.67676 -4.56931 3.52208 0.0412309 -0.00172115 0.0186497 
44 2 0.929541 0.204727 0.686092 0.032985 0.0192511 0.0420407 
45 2 3.33281 0.074545 2.40711 0.0643887 0.0141331 -0.0121383 
46 2 -0.24597 -2.69225 2.66804 0.0362728 0.0469446 0.0122508 
47 2 1.61214 3.68856 3.77705 0.0303723 0.00109514 0.0039246 
48 2 4.08783 3.46217 3.94194 0.0659176 0.0367974 -0.0931944 
49 2 -3.13588 -1.29199 4.10695 0.0119675 0.0149858 0.0164372 
50 2 2.5144 -2.18162 1.77707 -0.0439681 0.0608512 0.00451371 
ITEM: TIMESTEP
300
ITEM: NUMBER OF ATOMS
50
ITEM: BOX BOUNDS pp pp pp
-5 5
-5 5
-5 5
ITEM: ATOMS id type x y z vx vy vz 
1 1 -1.29269 -3.91128 -2.18116 0.00347023 0.11018 0.000596254 
2 1 0.739535 -1.0647 -0.108436 -0.00469085 0.0114349 0.0335176 
3 1 1.17665 1.74598 -3.71614 -0.0159828 -0.0192358 0.0135534 
4 1 -4.79467 4.2443 2.29401 0.0310211 0.00390138 -0.090521 
5 1 -0.971833 4.85888 -4.4383 0.0141867 -0.00299526 0.0213875 
6 1 1.26911 -3.84199 -1.61692 0.0373625 0.0102467 -0.051043 
7 1 -3.72301 0.488934 -3.09061 -0.0182014 0.025813 0.061048 
8 1 1.51959 -0.476078 -4.358 -0.0267802 0.0351245 -0.066802 
9 1 2.99375 1.97744 4.31564 0.00114275 -0.0690192 -0.038395 
10 1 4.17288 -3.00407 1.84248 -0.022407 0.0888422 -0.0737809 
11 1 1.58316 -4.89158 2.93264 0.00993428 -0.0101535 0.0631875 
12 1 -4.1149 -1.86605 3.45242 -0.0348388 0.0112626 0.0762794 
13 1 -1.78198 -2.14855 4.6888 -0.0041865 0.0160492 -0.0196626 
14 1 3.40798 4.98957 3.45243 -0.0296866 0.0506762 0.0448074 
15 1 2.52396 0.200934 1.79469 0.0625127 -0.0710462 0.028365 
16 1 -2.41422 0.450894 4.04295 0.0117508 -0.010303 -0.0422374 
17 1 -3.43776 -4.53875 4.4633 -0.0266652 -0.0192238 0.0598485 
18 1 -0.766474 -0.752232 -2.89394 -0.0627906 -0.0121815 -0.0394238 
19 1 2.88946 -2.48489 0.0392499 -0.00431722 -0.00718609 -0.0347511 
20 1 5.16152 2.50777 -3.58557 0.0468031 -0.02292 0.0241737 
21 1 -0.635783 2.53695 4.1069 -0.0445523 -0.00953944 0.088392 
22 1 -1.28797 1.67566 -3.34506 -0.0086291 -0.0390462 -0.0100295 
23 1 3.87296 -1.03689 5.0381 -0.0117461 -0.0489411 0.0584162 
24 1 2.20773 -2.16863 3.36022 0.0191492 -0.0336183 -0.0816651 
25 1 1.08621 -3.31124 -4.8994 -0.0343303 0.0387011 0.051193 
26 2 3.52441 -4.64063 1.98077 0.0230896 -0.0252448 -0.0883469 
27 2 4.07155 -1.91698 2.88865 0.00247048 8.07831e-05 0.00994578 
28 2 -2.56004 -3.9084 -1.12253 -0.0226115 -0.0627894 0.00499203 
29 2 -3.63748 2.83976 -2.64315 0.048912 0.010637 0.0557626 
30 2 4.32237 0.785241 -3.8633 0.0177552 0.00167558 -0.0197853 
31 2 1.99644 -1.33853 4.73202 -0.0439266 -0.00275348 0.0395963 
32 2 1.72974 1.0434 -4.71431 -0.0886437 -0.0631027 0.0167151 
33 2 2.08262 -3.77867 3.85345 0.0430392 -0.0177199 -0.0183173 
34 2 -0.997348 1.36657 4.00079 0.0720673 -0.00313736 -0.0482712 
35 2 -0.639266 3.36659 -4.43286 -0.0294772 0.00814715 -0.0192532 
36 2 -0.197401 0.699852 -3.14811 0.0333592 -0.0216876 0.00604882 
37 2 1.22284 -2.50175 -0.328973 -0.0151832 0.00831994 0.0038124 
38 2 -0.0623922 -4.1813 -3.40575 0.00162317 0.0383637 -0.0696368 
39 2 -2.4993 0.708649 -4.23152 -0.00578217 -0.00726854 -0.000876615 
40 2 -0.520389 -1.98269 -4.02489 -0.00505891 -0.0661467 -0.00353532 
41 2 -2.35017 -4.7051 -4.8657 0.00618298 0.00256033 0.0161223 
42 2 3.35829 -3.59127 -0.834067 -0.0304474 0.0478854 0.130923 
43 2 -4.57857 -4.36584 3.26534 -0.0322762 0.0441665 -0.0670268 
44 2 1.11977 0.336198 0.835973 0.00431214 0.0155411 -0.0185903 
45 2 3.86445 0.619306 2.41447 0.039773 0.0876061 0.0106244 
46 2 0.0772802 -2.31064 3.06429 0.0180855 0.0243341 0.073251 
47 2 1.8442 3.6154 3.6662 0.031047 -0.00599502 -0.022692 
48 2 4.8949 3.00594 3.32605 0.0530048 -0.0795779 -0.0248647 
49 2 -2.93522 -1.22767 4.24154 0.0168506 -0.00957667 0.000665142 
50 2 1.98104 -1.62985 1.49681 -0.0256937 0.0488597 -0.0437165 
ITEM: TIMESTEP
400
ITEM: NUMBER OF ATOMS
50
ITEM: BOX BOUNDS pp pp pp
-5 5
-5 5
-5 5
ITEM: ATOMS id type x y z vx vy vz 
1 1 -1.44857 -2.98402 -2.25192 -0.0247534 0.0547916 -0.00888513 
2 1 0.744187 -0.853917 0.591103 -0.018253 0.0416962 0.0884643 
3 1 0.886455 1.8058 -3.33523 -0.0203374 0.00525787 0.0363557 
4 1 -4.74305 4.33559 1.59481 -0.0310024 0.0222434 -0.0445888 
5 1 -0.831182 4.91222 -4.10631 0.000167126 0.0134422 0.0414609 
6 1 1.68973 -3.61598 -1.97505 0.0304355 0.027114 -0.0240943 
7 1 -3.85599 0.558609 -2.71298 -0.00722768 -0.0191374 0.0179549 
8 1 0.717394 -0.531136 -4.91181 -0.094577 -0.0328859 -0.0704269 
9 1 3.08645 1.39045 3.7342 0.0119285 -0.0296482 -0.0567474 
10 1 4.1653 -2.6812 1.34464 0.0243921 -0.0308187 -0.0306589 
11 1 1.14386 -5.19892 3.29361 -0.0433426 -0.040688 0.0330363 
12 1 -4.57349 -1.80545 3.95076 -0.032229 0.000354293 0.0192788 
13 1 -1.35037 -2.15431 4.51971 0.0530985 -0.0249579 -0.0409693 
14 1 3.80686 5.45507 3.86833 0.0712679 0.0406551 0.00768923 
15 1 3.10545 -0.340127 2.00163 0.0754709 -0.00174749 0.0229552 
16 1 -2.18196 0.322475 3.88846 0.0255795 -0.0214943 -0.00160108 
17 1 -3.98559 -4.74605 4.7397 -0.0281584 -0.0183016 0.00885304 
18 1 -1.24563 -0.890559 -3.48243 -0.0402774 0.0222037 -0.0508383 
19 1 2.19631 -2.02124 -0.153445 -0.0821534 0.0433298 -0.0284276 
20 1 -4.44217 2.47082 -3.4797 0.0312742 0.0207715 -0.0102348 
21 1 -0.81179 2.49215 4.45377 0.00540004 -0.0457485 -0.0515511 
22 1 -1.59593 1.56288 -3.54281 -0.0350413 0.0203041 0.00162807 
23 1 3.53294 -1.31821 -4.4522 -0.0632572 -0.0124175 0.0428222 
24 1 2.04985 -2.43351 2.66843 -0.0447818 -0.0396183 -0.0163572 
25 1 0.580909 -2.70196 -4.50011 -0.0382062 0.0606951 0.0137855 
26 2 3.74614 -4.96866 1.35648 0.0389141 -0.0637401 -0.0151302 
27 2 4.14251 -1.83333 3.1431 -0.00492985 0.0274517 0.017389 
28 2 -2.45844 -4.35149 -1.30434 0.039442 -0.0149299 -0.0397697 
29 2 -3.30513 2.55185 -2.34926 0.0147315 -0.0701239 -7.13058e-06 
30 2 4.74361 0.835956 -4.01438 0.0602235 0.00790223 0.00227453 
31 2 2.18848 -1.82929 5.08483 0.0493202 -0.0416213 0.0622521 
32 2 1.41059 1.20714 -4.95091 0.00668435 0.0710333 -0.0359607 
33 2 2.43955 -3.88372 3.7928 0.0100753 -0.00694281 -0.0166748 
34 2 -0.687434 0.907497 3.44576 -0.0113902 -0.0422567 -0.0308181 
35 2 -0.799499 3.2981 -4.11131 -0.00335691 -0.0231685 0.0837911 
36 2 0.0145682 0.430262 -2.96508 -0.013089 -0.0296821 0.00963058 
37 2 0.864145 -2.5454 -0.91379 -0.0408949 -0.000890104 -0.0927392 
38 2 0.308473 -4.10714 -3.69625 0.0767765 -0.0190267 0.0111378 
39 2 -2.62167 0.656411 -3.94237 -0.00913341 -0.0173679 0.0427934 
40 2 -0.847545 -2.08237 -3.95622 -0.0578669 0.0369836 0.025877 
41 2 -2.28233 -4.50161 -4.70769 -0.0221923 0.0326222 0.001533 
42 2 3.37877 -3.44889 0.0184812 0.0109573 0.0546658 0.0399851 
43 2 -4.6656 -4.01631 2.94655 0.0100524 0.0149468 0.0124456 
44 2 1.16486 0.629617 0.497288 0.00336875 0.0293195 -0.04245 
45 2 3.75617 1.15129 2.57 -0.0674383 -0.00638493 0.00869205 
46 2 0.125019 -2.23301 3.94123 -0.00968569 0.00154998 0.0884813 
47 2 2.26029 3.60126 3.52388 0.0396618 0.00256605 -0.00356981 
48 2 5.546 2.74846 3.1955 0.0907274 0.0331067 -0.00199053 
49 2 -2.90616 -1.33831 4.09248 -0.000368568 -0.00931685 -0.0202983 
50 2 2.34019 -1.4198 1.29957 0.063995 -0.0220911 -0.0057777 
ITEM: TIMESTEP
500
ITEM: NUMBER OF ATOMS
50
ITEM: BOX BOUNDS pp pp pp
-5 5
-5 5
-5 5
ITEM: ATOMS id type x y z vx vy vz 
1 1 -1.61582 -2.80737 -2.29759 -0.00246809 0.00235776 -0.00781488 
2 1 0.461784 0.0200421 1.59125 -0.011314 0.1209 0.0926523 
3 1 0.694451 1.69074 -3.22198 -0.0301985 -0.0255878 -0.0157832 
4 1 -4.61039 4.4113 1.49952 0.0739748 -0.0204037 0.0271087 
5 1 -0.951429 4.99225 -3.6219 -0.018523 0.00348949 0.0576814 
6 1 1.72343 -3.47664 -2.37876 -0.0118157 -0.00534764 -0.0575248 
7 1 -3.92948 0.348943 -2.73657 -0.005729 -0.016943 -0.0163601 
8 1 0.159519 -0.363601 -5.81758 -0.0237049 0.0367979 -0.0863179 
9 1 2.74628 1.7296 3.94294 -0.0618898 0.0762273 0.0369444 
10 1 4.31509 -3.19437 1.21877 -0.0117497 -0.0456068 -0.00889714 
11 1 1.29501 4.41131 3.74378 0.06747 -0.029895 0.0529887 
12 1 -4.51672 -1.81937 3.94161 0.0335162 -0.0047221 -0.0155235 
13 1 -1.64446 -2.66416 3.99645 -0.0744907 -0.0638307 -0.0310615 
14 1 3.9412 -4.11572 3.51023 -0.0464055 0.0335064 -0.0527934 
15 1 3.93078 -0.590559 2.09772 0.0620709 -0.0568911 -0.0140668 
16 1 -2.28222 -0.0838858 3.83115 -0.0531103 -0.0445262 -0.0074874 
17 1 -3.63575 -4.87798 4.66544 0.0676235 -0.0121145 -0.0366832 
18 1 -1.5587 -0.291072 -3.62004 0.067514 -0.0138597 0.00998688 
19 1 1.78383 -1.87703 -0.448012 -0.0119121 0.0101338 -0.00738586 
20 1 -4.17988 2.58616 -3.70985 0.0154119 -0.0143009 -0.0271697 
21 1 -0.448612 1.98112 3.8762 0.0598424 -0.0517375 -0.0496293 
22 1 -1.95654 2.14155 -3.13752 -0.0445002 0.0587929 0.0682616 
23 1 3.26085 -1.08767 -3.96896 -0.00639328 0.0457671 0.0460075 
24 1 1.78206 -2.86815 2.85345 -0.0125977 -0.0135334 0.025918 
25 1 0.695412 -2.68768 -4.04066 0.0235273 -0.0175807 0.0582893 
26 2 3.79633 -5.59848 1.26827 -0.0326829 -0.035403 -0.0175322 
27 2 4.05086 -1.43302 3.24523 0.0137854 0.0291815 0.031904 
28 2 -1.87487 -4.17881 -1.90326 0.0723992 0.0330733 -0.0787416 
29 2 -3.27597 1.77606 -2.47105 -0.00311131 -0.0442228 0.000782504 
30 2 5.23945 0.995597 -3.8111 0.00979692 0.0257428 0.0160185 
31 2 2.09357 -2.21711 -4.14748 -0.0265094 -0.0333373 0.0940567 
32 2 1.40178 1.69745 -5.18507 -0.0164017 0.0249716 -0.017303 
33 2 2.38169 -3.96289 3.37929 -0.0103362 -0.0154644 -0.0507473 
34 2 -0.902939 0.534912 3.5078 -0.00499031 -0.0350499 0.0268543 
35 2 -0.750313 2.80938 -3.52925 0.0229198 -0.0411909 0.0342881 
36 2 -0.282194 0.304706 -3.19151 -0.0215955 0.015977 -0.044198 
37 2 0.670966 -2.50009 -1.7999 0.00277108 0.0115796 -0.0718349 
38 2 1.03681 -4.23339 -3.48213 0.0488164 -0.0189889 0.0222324 
39 2 -2.65724 0.321049 -3.69413 -0.0573392 0.00186014 -0.0102473 
40 2 -1.37841 -2.02208 -3.62442 -0.0529358 -0.00946532 0.0400199 
41 2 -2.53229 -4.25322 -4.74233 -0.00325142 0.0159461 -0.00234516 
42 2 3.36733 -2.62932 -0.0901856 0.00476139 0.0589265 -0.0693799 
43 2 -4.54728 -3.97786 3.38548 0.0145842 0.00484287 0.0564314 
44 2 1.11341 0.647159 0.12038 -0.0227426 -0.0269062 -0.0252855 
45 2 3.20898 0.856903 2.21215 -0.052735 -0.0124079 -0.0240875 
46 2 0.175005 -1.95344 4.37575 -0.00105118 0.0438419 -0.00745308 
47 2 2.47527 3.60189 3.56587 0.0112891 -0.0170491 0.0152176 
48 2 -3.47467 3.35128 3.23103 0.0968663 0.0807748 0.0108957 
49 2 -2.8182 -1.3885 3.90937 0.00762931 -0.0156793 -0.0210444 
50 2 2.51876 -1.56791 1.44359 -0.0440851 0.00735483 0.050159 
