ITEM: TIMESTEP
100
ITEM: NUMBER OF ATOMS
50
ITEM: BOX BOUNDS pp pp pp
-5 5
-5 5
-5 5
ITEM: ATOMS id type x y z vx vy vz 
1 1 -2.80271 -0.496555 -3.36384 -0.0925855 -0.01159 -0.0376576 
2 1 -2.80573 2.19246 -4.45278 0.0249266 0.0238175 -0.00985324 
3 1 -0.292161 0.464658 -3.38065 0.0595913 0.0065824 0.0529291 
4 1 -2.51701 -2.72982 -2.32257 -0.0202892 0.0171746 -0.026844 
5 1 -0.500409 -3.74596 -2.23619 0.0167643 0.0037638 0.0206823 
6 1 1.35531 -4.73278 -1.432 -0.0254119 -0.00737185 -0.015709 
7 1 -5.04678 2.74076 3.77163 -0.0345592 0.0165885 -0.00674176 
8 1 -3.08637 4.12677 -1.82579 0.0364329 0.0275861 0.0391685 
9 1 3.75949 -3.77249 -0.318063 0.010702 0.0696264 0.03511 
10 1 -0.728555 -0.740257 4.78542 -0.0160948 -0.0329461 -0.000719234 
11 1 -1.44445 2.07565 -1.55668 0.0757734 0.0195021 0.000986271 
12 1 3.57217 2.80753 -0.323379 -0.0144257 -0.00564069 0.0155751 
13 1 0.341331 3.30159 -0.482653 0.0652645 0.000766352 -0.0628096 
14 1 -0.671672 3.71846 -3.25269 0.0180276 -0.00130297 -0.0407413 
15 1 -3.84519 0.0477495 -1.06856 0.0119257 0.0127885 -0.0185696 
16 1 4.05915 0.992237 -4.41227 -0.081266 -0.00686358 -0.00876957 
17 1 -2.24374 -0.41355 2.78143 0.00959641 -0.00412894 -0.00557945 
18 1 -0.0549614 -3.46981 -4.54337 -0.00763287 0.0287159 0.0178592 
19 1 1.5871 1.84857 -2.90971 -0.0206239 0.0362606 -0.027675 
20 1 0.916534 -1.79704 -1.13131 0.0148267 -0.00209939 -0.0242524 
21 1 5.30637 -0.416728 2.65215 0.0457895 0.0196168 -0.019345 
22 1 -1.17447 -3.15633 3.06422 -0.128333 -0.0410745 0.0276334 
23 1 -3.24645 -2.3547 0.472972 -0.0209104 -0.0247727 0.0451591 
24 1 -4.19431 -5.1203 2.46854 -0.03925 0.00229674 -0.030296 
25 1 -0.949287 -0.338201 0.669472 -0.0345149 0.083036 0.119683 
26 2 0.372682 -0.413776 -0.0141705 0.0502605 0.0666192 -0.0241251 
27 2 1.26756 -4.03952 -3.16718 0.00212803 -0.0214904 0.0099778 
28 2 -3.18765 -4.16842 -1.31652 0.0262481 -0.00265966 0.038734 
29 2 -3.29643 0.88083 -2.44375 0.0417554 -0.0332595 -0.0537943 
30 2 2.98964 1.41663 -2.68931 0.0267748 0.0013341 0.0847708 
31 2 -1.63519 -1.54351 1.10334 -0.00445157 0.051849 -0.00712776 
32 2 1.55731 -3.20943 -0.412799 0.0367583 -0.0384518 -0.066392 
33 2 4.32326 -4.46662 1.00097 -0.0387722 -0.036111 0.0364119 
34 2 1.82418 3.68486 -0.911434 0.0506096 -0.0278149 0.0270244 
35 2 -1.90494 3.31174 -3.32045 0.0318871 -0.0084495 0.0226613 
36 2 -0.39387 -2.41162 -1.60513 0.0172165 -0.100565 0.0653202 
37 2 0.161533 -3.62882 3.96052 0.0286288 0.00380008 0.0289211 
38 2 -1.76789 -1.43144 4.11432 -0.0485304 0.0109185 0.0165077 
39 2 3.73933 1.3028 3.18179 0.0018917 0.012118 -0.0245872 
40 2 0.0388275 1.68801 -3.02543 0.0301518 -0.0339647 -0.0055062 
41 2 -5.03374 3.67536 2.82752 -0.0608445 0.00306559 -0.0653722 
42 2 -3.11927 0.0350832 0.358504 -0.056107 -0.0327494 0.00162696 
43 2 -5.32053 -2.23832 -0.761808 -0.101457 0.0804579 -0.0545455 
44 2 -1.661 0.895693 -4.31103 -0.0354861 -0.0486243 0.0580744 
45 2 0.967848 -0.876703 -3.45527 0.0113488 0.000202582 -0.0110654 
46 2 -1.08828 -2.43495 -3.80455 0.0533673 0.0280645 0.0515885 
47 2 -3.61804 0.358035 3.33077 0.0697234 -0.0602842 -0.0555675 
48 2 -1.21249 2.44697 -0.112444 -0.0709721 0.0159787 -0.0138904 
49 2 -0.144413 4.42879 -1.75968 -0.0213101 -0.0237412 -0.129957 
50 2 5.3439 2.19441 -4.67862 0.105458 -0.0365736 0.0310883 
ITEM: TIMESTEP
200
ITEM: NUMBER OF ATOMS
50
ITEM: BOX BOUNDS pp pp pp
-5 5
-5 5
-5 5
ITEM: ATOMS id type x y z vx vy vz 
1 1 -3.47689 -0.132793 -4.11022 -0.0363546 0.0715324 -0.0948243 
2 1 -2.51917 2.14469 -4.18821 0.0378366 -0.0257303 0.0604207 
3 1 -0.0114441 -0.0850112 -2.90636 -0.00950883 -0.0503732 0.058501 
4 1 -2.56148 -2.76761 -2.42228 0.0172775 -0.0129192 0.00790467 
5 1 -0.363995 -3.95737 -2.25981 -0.0109788 -0.0278829 -0.00902903 
6 1 1.56414 -4.70482 -1.70488 0.0709288 0.00148443 -0.0393151 
7 1 4.54524 2.50819 3.69732 -0.0303507 -0.0262601 -0.0308879 
8 1 -2.55952 4.4842 -1.4785 0.0753578 0.0179474 0.0274927 
9 1 3.7674 -2.94149 0.0382657 -0.0218158 0.0811693 0.0188637 
10 1 -0.890074 -1.12926 5.12351 -0.0366692 -0.0384002 0.059024 
11 1 -1.02516 2.05392 -1.87344 -0.00241879 -0.00696432 -0.0512478 
12 1 3.32709 2.79075 -0.243713 0.0132987 -0.0251888 0.0149622 
13 1 0.810734 3.21476 -0.9575 0.028568 -0.0207835 -0.0315754 
14 1 -0.195849 3.64069 -3.8969 0.0358895 -0.0189287 -0.0778247 
15 1 -3.69931 0.327745 -1.1307 0.0128242 0.032859 0.0110146 
16 1 3.43076 1.02196 -4.36402 -0.0426883 -0.00391792 0.0158909 
17 1 -1.95635 -0.815904 2.83837 0.0476157 -0.0809637 0.0125314 
18 1 0.225916 -3.09835 -4.30441 0.0619718 0.030852 0.0228879 
19 1 1.9316 2.23002 -2.94147 0.0790743 0.0295643 0.0283922 
20 1 1.01878 -1.79789 -1.2496 0.00785525 -0.00804378 0.00379732 
21 1 -4.61686 0.0381495 2.34726 -0.0206479 0.0692278 -0.0465295 
22 1 -2.16858 -3.32433 3.49732 -0.068761 0.00962463 0.0606477 
23 1 -3.22157 -2.3431 0.737854 0.0333675 0.0374988 0.00719391 
24 1 -4.92562 4.9698 1.85847 -0.0946214 0.00756586 -0.0783584 
25 1 -1.06722 0.521741 1.15997 0.00340933 0.0795225 -0.0198474 
26 2 0.751264 0.235353 -0.33136 0.0144302 0.0559958 -0.0396272 
27 2 1.0388 -4.2244 -3.11833 -0.0352003 0.00339767 -0.0183895 
28 2 -2.80719 -4.07385 -1.14826 0.0343786 0.0312016 -0.00379782 
29 2 -3.14261 0.263588 -2.4025 -0.0180625 -0.0786672 0.0526769 
30 2 3.21327 1.55146 -2.13871 0.0113875 0.0306946 0.0186383 
31 2 -1.85126 -1.34984 1.47717 -0.0193393 0.0061381 0.0571046 
32 2 2.20456 -3.66331 -1.04953 0.0877788 -0.0252406 -0.0406077 
33 2 4.10911 -4.48236 1.09254 -0.0136362 0.0598876 -0.0322975 
34 2 2.30407 3.45522 -0.653572 -0.0113905 0.00853363 0.00184017 
35 2 -2.19262 3.17568 -3.04155 -0.0437804 -0.0170861 0.02673 
36 2 -0.496642 -3.12381 -0.718549 -0.00816877 -0.0483384 0.0865747 
37 2 0.0515114 -3.50728 4.16755 -0.0476236 0.022947 0.0250011 
38 2 -2.14182 -1.67643 3.98187 -0.00933271 -0.0790246 -0.000761723 
39 2 3.96645 1.30611 3.23407 0.0384128 -0.0230053 0.0337232 
40 2 0.346248 2.04903 -2.67293 0.0168111 0.0561351 0.0519132 
41 2 4.614 3.62477 2.38526 -0.0124782 -0.0438737 0.000415393 
42 2 -3.8782 -0.367442 0.310893 -0.0939972 -0.0488147 -0.0076636 
43 2 3.82179 -1.61495 -1.13155 -0.0731707 0.040633 -0.0151224 
44 2 -1.69517 0.070159 -4.12934 0.0438859 -0.0967666 -0.026387 
45 2 1.00649 -0.673455 -3.64815 0.0151437 0.0137881 -0.03549 
46 2 -0.996819 -2.37022 -3.29002 -0.0212351 -0.0152843 0.0471596 
47 2 -3.24309 0.116452 2.82272 -0.0106898 0.0318328 -0.0419133 
48 2 -1.67844 2.66373 -0.410997 -0.0241724 0.0197365 -0.0493337 
49 2 -0.262831 4.4029 -2.45384 0.00244874 0.0114999 0.00942118 
50 2 -3.9079 1.8522 -4.65773 0.0271409 -0.0388116 -0.0298922 
ITEM: TIMESTEP
300
ITEM: NUMBER OF ATOMS
50
ITEM: BOX BOUNDS pp pp pp
-5 5
-5 5
-5 5
ITEM: ATOMS id type x y z vx vy vz 
1 1 -3.64277 0.236689 -5.01595 -0.00443777 -0.0663475 -0.101315 
2 1 -2.43898 1.85154 -3.77605 -0.0344354 -0.0393295 -0.00341318 
3 1 -0.156676 -0.401885 -2.4516 -0.0071915 -0.0147101 0.0168533 
4 1 -2.40035 -2.70367 -2.21492 -0.00873336 0.0440014 0.0264269 
5 1 -0.501213 -4.10394 -2.14386 0.0115143 0.0101334 0.0176764 
6 1 2.33458 -4.7834 -2.174 0.0703471 0.00124167 -0.0344411 
7 1 4.50469 2.45302 3.42375 0.00950825 -0.0257954 0.00189444 
8 1 -1.71669 4.3206 -1.22447 0.0693529 -0.0390791 0.0278213 
9 1 3.46805 -2.27616 -0.130206 -0.0151337 0.0546172 -0.0479026 
10 1 -1.28019 -2.002 -4.41533 -0.0384469 -0.119794 0.0363604 
11 1 -1.24624 2.25499 -2.1035 -0.0078542 0.0413391 0.00981091 
12 1 3.57057 2.40068 -0.189078 0.00622519 -0.0384225 -0.0193229 
13 1 0.650197 2.97364 -1.1298 -0.0508606 -0.00724007 0.0237942 
14 1 0.120528 3.68518 -4.18924 0.0303763 0.0266225 0.0183744 
15 1 -3.77464 0.486593 -0.720357 -0.0216612 -0.0163168 0.0321347 
16 1 3.17021 0.709884 -4.2573 -0.0180913 -0.0565704 0.00508695 
17 1 -1.72753 -1.22923 3.1775 0.00823192 -0.0127742 0.0350112 
18 1 0.935486 -2.86633 -4.25247 0.0652945 0.0396677 -0.0269547 
19 1 2.35629 2.58788 -2.43619 -0.00616197 0.0499089 0.0511201 
20 1 1.27511 -2.04729 -1.01351 0.0467948 -0.0419101 0.0365974 
21 1 -4.79324 0.710385 1.8633 -0.00283692 0.0420289 -0.0324631 
22 1 -2.67617 -3.67731 4.15322 -0.0388324 -0.0957692 0.0639616 
23 1 -2.84147 -1.70067 0.612683 0.00571127 0.0672181 -0.0447549 
24 1 -5.76797 4.69302 1.31652 -0.0890436 -0.0254628 -0.0488088 
25 1 -1.04815 1.23708 0.690704 0.00356905 0.0656158 -0.0666391 
26 2 0.551055 0.647243 -0.805966 -0.0590703 0.0275569 -0.0511808 
27 2 0.942859 -3.9709 -3.36973 0.0226706 0.00523206 0.0048039 
28 2 -2.60313 -3.79268 -1.39372 0.0116236 -0.00642178 -0.0251173 
29 2 -3.24463 -0.495639 -2.17657 -0.00254556 -0.0627552 0.0263604 
30 2 3.57457 1.85516 -2.08338 0.0792525 0.0162377 0.0131817 
31 2 -1.8757 -1.45128 1.51285 0.0294678 -0.00741126 -0.00311242 
32 2 3.00477 -3.64574 -1.32469 0.0474136 0.00367943 -0.0509769 
33 2 3.92172 -3.41769 0.628332 0.00756188 0.0958994 0.000341252 
34 2 2.08469 3.7057 -0.799719 0.00122043 0.0194736 -0.0254543 
35 2 -2.47388 2.99167 -2.81854 -0.0154748 -0.0176479 0.00286257 
36 2 -0.246074 -3.49081 -0.218851 0.0551124 -0.0255512 0.0139255 
37 2 -0.493889 -3.20077 4.60465 -0.0377502 0.0309887 0.0630605 
38 2 -2.25098 -2.17653 4.32941 -0.0374664 0.0204754 0.0511088 
39 2 4.26037 0.63889 3.61826 0.022547 -0.0676094 0.0383851 
40 2 0.668327 2.45745 -2.46897 0.0402498 0.0098271 -0.0440818 
41 2 4.58014 3.35232 2.27524 -0.00423916 0.00464188 -0.0528801 
42 2 -4.70897 -0.834038 0.330194 -0.0550616 -0.0272797 0.0162658 
43 2 2.97501 -1.25803 -1.09569 -0.116798 0.0455616 0.011744 
44 2 -1.44627 -0.127098 -4.25322 0.00321822 0.0424071 0.00388715 
45 2 1.10571 -0.668045 -3.93418 0.00370205 -0.0138509 -0.00711331 
46 2 -1.08714 -2.62389 -2.857 0.017998 -0.0169852 0.032774 
47 2 -3.25232 0.523053 2.51252 0.00164632 0.0437343 -0.0322479 
48 2 -1.75764 2.73561 -0.83597 0.00988864 -0.0109318 0.00223714 
49 2 -0.399616 4.33 -2.10879 -0.0291662 -0.00806071 0.0462355 
50 2 -3.7069 1.59475 -4.92483 0.0207941 0.0559162 -0.011917 
ITEM: TIMESTEP
400
ITEM: NUMBER OF ATOMS
50
ITEM: BOX BOUNDS pp pp pp
-5 5
-5 5
-5 5
ITEM: ATOMS id type x y z vx vy vz 
1 1 -3.75928 -0.379693 3.80742 -0.0315235 -0.0472012 -0.113868 
2 1 -2.90372 1.34192 -3.99177 -0.0344275 -0.0527323 -0.0177772 
3 1 -0.086774 -0.391883 -2.54699 0.0208774 0.0100655 -0.0251481 
4 1 -2.65068 -2.11553 -1.89726 -0.00480958 0.00967396 0.0241211 
5 1 -0.140993 -3.83964 -1.95773 0.0448907 0.0220768 0.0232903 
6 1 2.75031 -4.66019 -2.39341 0.00771 0.0134005 -0.0209429 
7 1 4.73692 2.13172 3.62996 0.0405565 -0.0333876 0.0378953 
8 1 -1.78511 4.30993 -0.67859 -0.0661033 0.0430469 0.0629492 
9 1 3.90511 -1.77914 -0.580304 0.0836495 0.041956 -0.0248692 
10 1 -1.64424 -2.79129 -3.98524 -0.0288934 -0.0344809 0.0499084 
11 1 -1.21654 2.41247 -2.35077 0.00648547 -0.0105214 -0.0522619 
12 1 3.59266 2.0086 -0.552295 0.0104938 -0.0394853 -0.0212663 
13 1 0.46022 3.13808 -0.776773 0.0231556 0.045775 0.0262158 
14 1 0.430467 4.05108 -3.60276 0.0338571 0.0476522 0.0901714 
15 1 -4.1655 0.121411 -0.841153 -0.060937 -0.0336895 -0.0580527 
16 1 2.91195 -0.00117784 -4.21355 -0.0383034 -0.0818231 0.00226399 
17 1 -1.64947 -1.41943 3.34806 0.01545 -0.0358424 0.00276963 
18 1 1.32681 -2.38226 -4.44297 0.00355801 0.0398351 0.00471248 
19 1 2.3653 2.82602 -2.16608 0.00678229 -0.010595 -0.0320735 
20 1 1.49101 -2.65004 -0.727614 -0.00279869 -0.0668366 0.021795 
21 1 -4.66991 0.705543 1.73563 0.00725019 -0.0343142 -0.0143835 
22 1 -2.90735 -4.41397 4.76103 -0.0206764 -0.0595122 0.0524986 
23 1 -2.93433 -1.23234 0.3173 0.00399798 0.0204272 0.0170425 
24 1 3.40381 4.64443 0.861156 -0.0701171 0.00360829 -0.0421296 
25 1 -0.950235 1.516 0.0485809 0.0336641 -0.0867255 -0.0184243 
26 2 -0.45354 0.998035 -1.28645 -0.121178 0.0449303 -0.0575574 
27 2 1.39383 -4.16556 -3.18574 0.0522646 -0.0383378 0.0182367 
28 2 -2.49938 -4.10382 -1.53386 0.0129647 -0.0320034 -0.00881281 
29 2 -3.20583 -1.03972 -1.52257 -0.00981374 -0.0158128 0.115885 
30 2 4.1935 2.08729 -1.78777 0.0404498 0.0219881 0.0363803 
31 2 -1.59176 -1.44038 1.65757 0.00403103 0.00766866 0.0222835 
32 2 3.35691 -3.41222 -1.87738 0.0418072 0.0638797 -0.0295974 
33 2 3.9859 -2.83219 0.963635 -0.011606 0.0323887 0.028487 
34 2 2.243 3.70625 -1.07222 0.0211925 -0.00342803 -0.00233071 
35 2 -2.48595 2.72632 -2.97692 0.0111504 -0.0381411 -0.0182793 
36 2 0.5417 -3.62884 -0.410732 0.0945049 -0.00776064 -0.0442934 
37 2 -0.452819 -3.13916 5.04326 0.0301549 -0.0104793 0.0128803 
38 2 -3.08353 -1.9304 4.69096 -0.0894945 0.0247862 0.0199517 
39 2 4.53162 0.262107 4.01053 0.0382593 -0.0129128 0.0370093 
40 2 1.04861 2.65515 -3.2372 0.0385224 0.0377105 -0.0822075 
41 2 4.3656 3.30527 1.61128 -0.0420778 -0.0175855 -0.071756 
42 2 -4.85541 -0.62706 0.418766 0.0208968 0.0708153 -0.0120968 
43 2 1.62799 -0.903322 -0.930512 -0.123553 0.00857789 0.0221389 
44 2 -1.59494 0.426339 -4.07095 -0.0270212 0.0618659 0.0339574 
45 2 1.29867 -0.977484 -3.87276 0.0413158 -0.0356627 0.00972416 
46 2 -0.855741 -2.46406 -2.53298 0.0105528 0.0505815 0.0363511 
47 2 -3.35284 0.911408 2.11877 -0.0133575 0.0262659 -0.0350216 
48 2 -1.50461 2.65447 -0.279069 0.0029979 0.0836235 0.0395772 
49 2 -0.425683 4.21377 -1.84028 0.0190892 -0.0257327 0.0130841 
50 2 -3.64018 2.05516 -5.15977 -0.0258414 0.0324045 -0.0584305 
ITEM: TIMESTEP
500
ITEM: NUMBER OF ATOMS
50
ITEM: BOX BOUNDS pp pp pp
-5 5
-5 5
-5 5
ITEM: ATOMS id type x y z vx vy vz 
1 1 -4.19333 -0.87406 3.17551 -0.0401925 -0.0574411 0.0023063 
2 1 -3.20356 1.145 -4.23129 -0.009642 0.0121229 -0.0236908 
3 1 0.064834 -0.373653 -2.6751 -0.00229059 -0.0128115 0.00648102 
4 1 -2.41137 -2.44701 -1.59828 0.0289822 -0.0333754 0.0663658 
5 1 0.0506142 -3.6787 -1.78436 -0.00660829 0.0261921 0.0250066 
6 1 3.01239 -4.30494 -2.36657 0.0500219 0.0589036 0.0256894 
7 1 5.08493 1.61339 4.04044 -0.0160017 -0.0796327 0.014492 
8 1 -2.39568 4.74887 -0.37996 -0.0431973 0.0312049 0.00370401 
9 1 4.63478 -1.82251 -0.466498 0.062651 -0.0511485 0.0465703 
10 1 -1.48681 -2.89718 -3.68772 0.0511182 0.00600183 0.001746 
11 1 -1.08198 2.25911 -2.81396 -0.00096854 -0.00594029 -0.0552626 
12 1 3.70893 1.81343 -0.226627 0.0199534 0.019834 0.0542698 
13 1 0.64897 3.88801 -0.531492 0.00758007 0.0921164 0.0309589 
14 1 0.726726 4.51609 -2.81808 0.0224968 0.00229857 0.0363823 
15 1 -4.59216 0.192495 -1.63687 -0.00634298 0.0483621 -0.0769317 
16 1 2.78547 -0.639992 -4.27961 0.0587929 -0.0255848 -0.0295514 
17 1 -1.40912 -1.89921 3.34331 0.0259832 -0.0526573 0.00325621 
18 1 0.955858 -2.57615 -4.34062 -0.0601901 -0.0592718 0.0174476 
19 1 2.51858 2.61719 -2.8262 0.0287001 -0.0170387 -0.0634206 
20 1 2.05311 -2.40377 -0.550041 0.0731999 0.0677889 0.0195868 
21 1 -4.84992 0.503968 1.40348 -0.0179336 0.0268005 -0.0112593 
22 1 -3.18887 -5.12599 5.21257 -0.0334607 -0.0917929 0.0436562 
23 1 -2.71588 -1.03074 0.923152 0.0279886 0.0316069 0.08143 
24 1 2.86767 4.50657 0.361093 -0.0375327 -0.0374267 -0.0628467 
25 1 -0.821975 0.528385 -0.147102 0.000711549 -0.0963562 -0.0464761 
26 2 -1.29737 1.17012 -1.77176 -0.0321703 -0.024039 0.0263208 
27 2 1.60405 -4.53392 -3.11489 0.0181345 0.0102048 -0.00732527 
28 2 -2.31615 -4.22404 -1.59111 0.0232885 0.0214578 -0.00767548 
29 2 -3.33295 -1.12893 -0.463264 0.00291664 -0.0483832 0.0477717 
30 2 4.53051 2.08306 -1.68935 0.0167049 -0.0352353 -0.00230197 
31 2 -1.83704 -1.33794 1.95352 -0.0387854 0.00615686 0.0432051 
32 2 3.75451 -2.64368 -1.90569 0.0292062 0.0793137 0.0236627 
33 2 3.78616 -2.51796 0.934676 -0.0229138 0.0400135 -0.0381138 
34 2 2.35688 3.64685 -0.94393 -0.00363919 -0.0123017 0.00778061 
35 2 -2.69552 2.55233 -3.25367 -0.0566305 0.0236554 -0.0402747 
36 2 1.12207 -4.27224 -0.741764 0.0589946 -0.0708309 -0.0192256 
37 2 -0.329942 -3.10052 -4.76891 -0.0097942 0.0206173 0.0295218 
38 2 -3.65084 -1.69795 4.64632 -0.0241783 0.0178603 -0.0305497 
39 2 4.92542 0.215754 4.15819 0.0297213 -0.00681881 -0.0086118 
40 2 1.51975 3.0671 -3.8415 0.0481018 0.0394009 -0.039095 
41 2 3.72005 3.11527 0.780466 -0.0804066 -0.0227 -0.0883031 
42 2 -4.93036 0.160416 0.0911202 -0.0734222 0.0698626 -0.0879572 
43 2 0.505355 -0.96523 -0.770728 -0.0982602 -0.00659265 0.0136744 
44 2 -1.6344 0.673608 -3.81432 0.0206715 -0.0244007 -0.0126975 
45 2 1.62094 -1.09107 -3.64951 -0.0286136 -0.0241137 0.0442747 
46 2 -0.969871 -1.97864 -2.31435 -0.0322796 0.0231878 -0.00495373 
47 2 -3.41544 0.940214 1.96725 -0.0170082 -0.0288994 -0.000390425 
48 2 -1.37606 3.66447 0.294145 0.0229908 0.104109 0.0722112 
49 2 -0.125104 3.96299 -1.90036 0.0217192 -0.03143 -0.022709 
50 2 -3.80132 2.46936 4.35174 0.0418334 0.07715 -0.00814878 
