ITEM: TIMESTEP
100
ITEM: NUMBER OF ATOMS
50
ITEM: BOX BOUNDS pp pp pp
-5 5
-5 5
-5 5
ITEM: ATOMS id type x y z vx vy vz 
1 1 -2.75248 -0.607782 -0.454365 -0.0162118 -0.0123206 0.0094859 
2 1 2.43356 0.600122 -2.04726 0.00796054 -0.0191796 0.0407884 
3 1 -3.84999 2.83001 2.351 -0.0905408 -0.0186329 -0.0340071 
4 1 -4.961 -2.69177 3.31485 -0.0455511 -0.0161305 0.000198341 
5 1 3.76177 3.0983 1.46425 -0.00243223 0.00496254 -0.0072052 
6 1 0.122145 -1.68105 -0.00739751 -0.0343471 0.00439503 0.00648266 
7 1 5.43762 -1.50283 1.38315 0.0203951 0.0515105 -0.00680108 
8 1 -2.42665 -2.82648 2.12413 0.0424674 -0.0193778 0.0068172 
9 1 1.97495 4.91034 1.53326 0.018675 0.084279 0.00945844 
10 1 2.40595 3.67475 -3.69267 -0.0255095 -0.0136556 -0.0627188 
11 1 2.93362 -4.91391 3.6645 0.0239396 -0.00385381 -0.0011859 
12 1 -2.28243 4.68774 1.32461 -0.00821391 -0.0028359 -0.0242868 
13 1 -2.7421 -4.92113 3.57652 -0.0485481 -0.0100207 -0.04151 
14 1 4.11884 -3.77443 1.16012 0.085688 0.0338456 0.0371828 
15 1 -3.10042 -3.06305 -0.730426 -0.0251596 0.0228896 0.00854923 
16 1 -0.389963 3.54002 3.12431 -0.00714397 -0.00379328 0.0266582 
17 1 2.77584 0.169928 0.938708 0.0765188 0.0744869 -0.039175 
18 1 1.4266 1.20885 2.72822 0.00784996 0.0262379 -0.0255296 
19 1 3.95005 0.223446 3.20572 0.0115842 -0.0983124 -0.0294892 
20 1 2.3185 -1.97168 2.61168 0.0412041 -0.02624 0.0427645 
21 1 2.79587 -1.66889 -0.625787 0.0456819 0.0172215 0.0340392 
22 1 -2.2229 1.06706 1.83303 0.0073766 -0.0107314 0.03526 
23 1 1.67808 -3.67323 -1.09652 0.0275536 -0.0451822 -0.0613783 
24 1 -0.44359 -4.57728 -0.683887 0.0272506 -0.00209679 -0.0109257 
25 1 3.24076 2.22659 3.94588 0.0062042 -0.0138491 0.0372941 
26 2 -1.69085 -3.9504 2.24728 0.0781402 0.0122279 0.0362981 
27 2 3.53778 -3.35871 3.06181 -0.0940106 -0.00842687 0.0141031 
28 2 -1.88356 5.09098 -0.202045 -0.0382283 0.0286849 0.0463081 
29 2 2.97843 4.34924 -4.74626 0.0166223 -0.00353706 0.0105429 
30 2 -2.99918 -1.54271 -1.87645 0.012723 -0.0180251 0.0197317 
31 2 -3.7141 0.350795 0.902578 0.00125936 0.00249305 0.0118673 
32 2 0.0690391 -3.27553 -1.17719 -0.00597212 -0.0300308 0.0126008 
33 2 -1.14256 -0.722504 -0.109282 -0.0391958 -0.0333971 -0.0108304 
34 2 -4.55449 -1.25281 3.24061 -0.0259234 -0.0664286 -0.0766618 
35 2 2.05118 2.3726 3.13376 -0.00147084 0.0177559 -0.029956 
36 2 -2.37911 2.97045 2.44053 0.0214232 -0.00985219 0.00648882 
37 2 -3.53994 -3.60108 3.30599 0.00380433 0.0245708 -0.0215894 
38 2 3.90369 -2.22024 0.771594 0.041922 -0.025418 0.0266072 
39 2 2.1731 -3.8408 0.623897 0.0576659 0.0603325 0.029678 
40 2 4.43506 1.9749 2.84257 -0.00749659 -0.0104434 -0.0293388 
41 2 3.04752 1.74863 -3.97499 -0.00791366 0.0222909 0.0249468 
42 2 1.60967 -0.852946 -0.228552 -0.0473421 -0.0206365 0.00236451 
43 2 3.94865 0.484359 -1.49002 -0.0466404 -0.0335327 0.0167212 
44 2 1.37983 -0.602631 3.23369 -0.0279276 0.0249287 -0.00270654 
45 2 3.07506 -0.229693 2.15384 0.0401799 0.0694265 -0.0150475 
46 2 -3.56302 -2.07763 0.668983 0.0850314 0.00570105 0.0112862 
47 2 1.42461 1.35415 1.13795 -0.0658966 -0.0163732 -0.0405613 
48 2 3.40277 4.39009 2.03131 0.00379305 0.00153302 0.0199679 
49 2 0.741509 4.22817 2.55977 -0.079895 0.0243968 -0.0125558 
50 2 -4.01821 4.33768 2.2445 -0.0213433 -0.0218564 -0.00103137 
ITEM: TIMESTEP
200
ITEM: NUMBER OF ATOMS
50
ITEM: BOX BOUNDS pp pp pp
-5 5
-5 5
-5 5
ITEM: ATOMS id type x y z vx vy vz 
1 1 -2.86531 -0.66885 -0.342884 0.00372369 0.0047033 0.00766184 
2 1 2.36774 0.572965 -1.92314 -0.0352434 0.00406028 -0.0222127 
3 1 -4.50806 2.61958 2.20795 0.0180021 -0.00395698 -0.00537464 
4 1 -5.23058 -3.06558 3.61185 0.000884946 -0.0318773 0.0516326 
5 1 3.47089 3.04795 1.65901 -0.0796766 0.00927147 0.0512956 
6 1 -0.116191 -1.59257 -0.083716 0.00133786 0.00107046 -0.0211754 
7 1 -4.44768 -0.744033 1.24266 0.00671685 0.0628368 -0.0246988 
8 1 -2.2371 -2.76496 2.13329 0.0169308 0.0016385 0.00231904 
9 1 1.8521 5.65617 1.74217 -0.0329622 0.0669332 0.0294022 
10 1 2.17608 3.2292 -4.14143 -0.0262868 -0.0255659 -0.0354055 
11 1 3.27151 -5.05175 3.71862 0.0266108 -0.0178625 -0.00872058 
12 1 -2.38513 4.50072 1.21638 -0.00533465 -0.03628 0.0061004 
13 1 -3.42382 -4.96814 3.15443 -0.074809 0.00389745 -0.0273614 
14 1 4.72518 -3.67067 1.47687 0.0432184 -0.00660964 0.00615961 
15 1 -3.16749 -2.8759 -0.64218 0.0146889 -0.0145106 0.0246292 
16 1 -0.525371 3.47756 3.21099 -0.0128907 0.00743768 -0.0232847 
17 1 3.20358 1.01389 0.300169 0.0253705 0.0646787 -0.0501305 
18 1 1.37402 0.998212 2.25427 6.14021e-05 -0.0452404 -0.0512706 
19 1 4.5133 -0.543337 3.17439 0.0506355 -0.0111822 0.0118384 
20 1 2.50641 -1.96518 2.80831 -0.0211481 0.0353025 -0.00928623 
21 1 3.36029 -1.60432 0.0280668 0.0369902 -0.00513172 0.0840805 
22 1 -2.2759 0.987675 2.01076 -0.0114559 0.00421211 0.00233592 
23 1 1.92215 -3.96812 -1.47384 0.014119 -0.00215675 -0.00696783 
24 1 -0.705984 -4.71143 -0.562315 -0.0588577 -0.000258345 0.0313349 
25 1 3.39005 2.24608 4.39311 0.01766 -0.00226941 0.0208353 
26 2 -1.06369 -4.06695 2.57396 -0.013049 0.020667 0.0326251 
27 2 2.75154 -3.38571 3.32217 -0.0458969 -0.00530987 0.0366372 
28 2 -2.22129 -4.48955 -0.00873728 -0.0256667 0.0436611 -0.0136512 
29 2 3.19479 4.46129 -4.99281 0.0167828 -0.00578096 -0.0179302 
30 2 -3.04903 -1.85022 -1.57842 -0.0298275 -0.0244676 0.0166656 
31 2 -3.49517 0.425606 1.11444 0.0365514 0.0104546 0.0262401 
32 2 0.402714 -3.5042 -1.03382 0.0525587 -0.0384802 0.0110922 
33 2 -1.42971 -0.91614 -0.0539195 0.00200163 0.0146237 0.0152073 
34 2 -5.01529 -1.6081 2.56137 -0.0490653 -0.0352462 -0.0210299 
35 2 2.11827 2.61428 3.20773 0.00766153 0.00848657 0.0312489 
36 2 -1.88256 2.69405 2.4981 0.0571761 -0.0382255 0.00486176 
37 2 -3.65079 -3.36529 3.14129 -0.0215312 7.3474e-05 -0.0134151 
38 2 4.56183 -2.16443 0.803438 0.0856433 0.0196669 -0.03986 
39 2 2.53378 -3.3743 0.508264 0.0213355 0.0266508 -0.0363176 
40 2 4.44794 1.93275 2.61295 -0.014051 0.00232243 0.00119696 
41 2 2.78951 2.08754 -3.85081 -0.0292514 0.0216121 0.00207608 
42 2 1.44779 -1.22174 -0.377296 0.00932587 -0.043552 -0.0256906 
43 2 3.45361 -0.0612712 -0.903952 -0.0316559 -0.0637236 0.101499 
44 2 1.1007 -0.426161 3.25187 -0.0139529 0.0154257 -0.00557339 
45 2 3.45396 0.190074 1.78454 0.0215927 0.0169699 -0.0644132 
46 2 -2.6818 -2.3664 0.835493 0.0510997 -0.0398994 0.0350922 
47 2 0.961805 1.26852 0.687011 -0.0198346 0.00375622 -0.0383565 
48 2 3.36382 4.59145 2.1295 -0.00414742 0.0318172 -0.00556987 
49 2 0.278892 4.58417 2.24537 0.0131745 -0.00207876 -0.0483151 
50 2 -4.12077 4.28359 2.08994 0.00474021 -0.00256436 -0.0280563 
ITEM: TIMESTEP
300
ITEM: NUMBER OF ATOMS
50
ITEM: BOX BOUNDS pp pp pp
-5 5
-5 5
-5 5
ITEM: ATOMS id type x y z vx vy vz 
1 1 -2.64747 -0.691079 -0.387661 0.0302225 -0.0218215 -0.00784605 
2 1 2.04784 0.388473 -2.09282 -0.0268809 -0.0354207 -0.00623786 
3 1 -4.12365 2.63291 2.09338 0.00728825 -0.0134061 -0.0111125 
4 1 4.80372 -2.99274 4.09814 -0.00846759 0.0471188 0.0331454 
5 1 2.43552 3.22162 2.3969 -0.109949 0.019807 0.0488754 
6 1 0.0672398 -1.64042 -0.326308 0.00236019 0.00124175 -0.0160747 
7 1 -4.72491 -0.498876 0.999652 -0.0403567 0.00179781 -0.0365655 
8 1 -2.10668 -2.83008 2.44912 -0.0229615 0.027875 0.0269878 
9 1 1.52915 -3.91612 1.92686 -0.0180612 0.0102827 0.00182236 
10 1 1.77211 3.50379 -4.53625 -0.0214628 0.0310091 -0.0429547 
11 1 3.24668 4.91136 3.51957 -0.0214166 0.0203942 0.00302755 
12 1 -2.45025 4.23479 1.21283 -0.0123783 -0.00990644 -0.0156731 
13 1 -3.94607 -4.95193 3.15815 -0.0272535 -0.0406412 0.00873671 
14 1 5.07034 -3.53106 1.2915 0.0210506 0.0356724 -0.0281302 
15 1 -3.05961 -3.16803 -0.204014 -0.0214939 0.00486123 0.031105 
16 1 -0.444605 3.71131 2.68374 0.0322952 0.0272867 -0.0712258 
17 1 3.42242 1.21183 0.10917 0.0146198 -0.017207 0.00782832 
18 1 1.39597 0.517124 1.75149 -0.00108897 -0.0354051 -0.0624238 
19 1 4.752 -0.106248 3.31242 0.00261286 0.056133 0.00191118 
20 1 2.14298 -1.51265 2.79534 -0.0319781 0.038223 0.0284913 
21 1 3.34867 -1.6564 0.618486 -0.0251131 -0.00673517 0.0161133 
22 1 -2.04277 1.14888 2.03129 0.0591867 0.00626633 -0.00331396 
23 1 2.06343 -3.68801 -1.14059 0.0178564 0.0550674 0.0738239 
24 1 -0.912687 -4.40665 -0.306404 0.032522 0.046476 0.0128073 
25 1 3.58065 2.12803 4.32657 0.012513 -0.0102432 -0.0100165 
26 2 -1.49796 -3.90146 3.01481 -0.0142358 -0.0492023 0.066529 
27 2 2.47917 -3.29921 3.51408 -0.0281484 0.0142258 -0.00157924 
28 2 -2.47171 -4.5969 -0.185374 -0.0166243 -0.0724249 -0.0110279 
29 2 3.31834 4.12166 -4.95496 0.00721098 -0.0398736 -0.00543656 
30 2 -3.36754 -1.86303 -1.52957 0.000343455 0.0139537 -0.00767833 
31 2 -3.31138 0.522273 1.30114 -0.0192144 0.00378328 0.0128882 
32 2 0.511803 -4.19801 -0.942111 -0.0320654 -0.0847986 0.0120039 
33 2 -1.10607 -0.523184 0.0380068 0.0516014 0.0434806 -0.00113797 
34 2 4.32182 -1.95688 2.89738 -0.0865395 -0.000232198 0.0517159 
35 2 2.17 2.60822 3.62475 -0.0148992 -0.0013189 0.0620025 
36 2 -1.47655 2.37571 2.4935 0.0265429 -0.00445139 -0.00360041 
37 2 -4.03291 -3.59196 3.12294 -0.0563826 -0.0149331 0.00616552 
38 2 5.51769 -2.14582 0.0461813 0.0669482 -0.00616284 -0.0422127 
39 2 2.8461 -3.25768 0.341953 0.0402 0.00857491 0.00438221 
40 2 4.35346 2.14334 2.91203 0.0205159 0.0324683 0.0466851 
41 2 2.62149 1.87231 -3.79154 -0.0230195 -0.0361479 0.00541805 
42 2 1.36219 -1.58743 -0.6871 -0.0118303 -0.0325816 -0.0462953 
43 2 3.3506 -0.312859 -0.438478 0.00874496 0.00280075 -0.0392335 
44 2 1.22012 -0.371114 2.97246 0.0344246 -0.0107145 -0.0482868 
45 2 3.61633 0.178411 1.3923 0.0291544 -0.00826033 0.0333796 
46 2 -2.47508 -2.47563 1.01918 0.0230529 0.0137493 0.0195615 
47 2 1.0747 1.38902 0.442868 0.043822 0.0151269 -0.0106319 
48 2 3.40173 4.89237 1.98932 0.00904894 0.0167302 -0.00961387 
49 2 0.708461 4.33293 1.66789 0.0467312 -0.0201625 -0.0471943 
50 2 -3.8593 4.1131 1.69928 0.0509529 -0.0223552 -0.0299034 
ITEM: TIMESTEP
400
ITEM: NUMBER OF ATOMS
50
ITEM: BOX BOUNDS pp pp pp
-5 5
-5 5
-5 5
ITEM: ATOMS id type x y z vx vy vz 
1 1 -2.36684 -0.965723 -0.390871 0.0272231 -0.012266 0.00539736 
2 1 1.94751 -0.0328005 -2.01675 0.0141798 -0.0446079 0.0157124 
3 1 -4.35122 2.27776 1.97919 -0.0263556 -0.0483796 -0.0176994 
4 1 4.60643 -2.43956 4.10681 -0.0178049 0.0494713 -0.0291119 
5 1 1.57591 3.2867 2.42365 -0.0210529 -0.0342059 -0.00219841 
6 1 -0.101147 -1.42923 -0.383055 0.000655601 0.0239138 -0.0119743 
7 1 -4.80426 -0.523604 0.56019 0.0285257 -0.00915955 -0.0353829 
8 1 -2.40681 -2.71544 2.79176 -0.0269267 -0.0192025 0.0339639 
9 1 1.66602 -4.05342 1.87906 0.0444158 -0.0333912 -0.00295852 
10 1 1.83305 3.52869 -4.85855 0.0143344 -0.00555651 0.00322561 
11 1 3.16337 5.35965 3.69136 0.00723189 0.0524843 0.0162375 
12 1 -2.39075 4.20636 0.834461 -0.00305999 -0.029977 -0.0127822 
13 1 -4.1203 -5.4631 3.14287 -0.0182808 -0.0367287 -0.0109835 
14 1 -5.10245 -3.23415 1.3034 -0.0668668 0.005685 0.0449965 
15 1 -3.22347 -3.04082 -0.286741 -0.000730172 0.0047451 -0.0358309 
16 1 -0.346714 3.90176 2.02126 -0.0450542 0.0191355 -0.0531465 
17 1 3.36379 0.975728 0.289758 -0.0254647 -0.0111088 0.0189335 
18 1 1.24678 0.329269 1.07067 -0.0396231 -0.0115894 -0.057074 
19 1 4.57222 0.371682 3.04297 -0.0281265 0.0371258 -0.0412686 
20 1 2.31031 -1.68052 3.43749 0.0198405 -0.0372953 0.0723435 
21 1 2.98111 -1.55584 0.478637 -0.0291979 0.0460322 -0.0200427 
22 1 -1.50659 0.934405 1.7706 0.042623 -0.0216317 -0.0391133 
23 1 2.00341 -3.17474 -0.445899 -0.0300127 0.0178753 0.0282613 
24 1 -0.755216 -4.10128 -0.179687 -0.00518258 0.0100672 0.00810407 
25 1 3.4709 2.29305 4.45603 -0.0228676 0.0410629 0.0241021 
26 2 -1.58154 -4.5619 3.49077 -0.0138608 -0.0604395 0.0182849 
27 2 1.89491 -3.39455 3.34958 -0.0745708 -0.0289785 -0.0285868 
28 2 -2.35265 -5.05386 -0.28834 0.0384863 0.0187477 -0.0385069 
29 2 3.37809 4.03468 -5.18674 0.00601995 0.0222538 -0.0324598 
30 2 -2.76458 -1.59155 -1.79595 0.0924482 0.0271433 -0.00569668 
31 2 -3.64821 0.602943 1.47955 -0.0344044 0.0142913 0.0168077 
32 2 0.459046 -4.78495 -0.861286 0.0167877 -0.0266292 0.0107474 
33 2 -0.714793 -0.188509 0.00223388 0.0192289 0.0346722 0.00650935 
34 2 3.65841 -1.47794 3.38963 -0.0295858 0.0699583 0.0665022 
35 2 1.68375 2.64871 4.06963 -0.0701258 0.00223546 -0.0138606 
36 2 -1.15693 2.68426 2.37386 0.0392021 0.0331679 -0.034813 
37 2 -4.63562 -3.67251 3.14771 -0.0560207 -0.00665777 0.000991388 
38 2 -4.5107 -2.19347 0.489625 -0.0298086 0.0150992 0.077087 
39 2 3.24618 -3.04478 0.549645 0.0328094 0.0281988 0.0391087 
40 2 4.88907 2.28418 3.35429 0.0618271 -0.0134581 0.0485289 
41 2 2.33255 1.41142 -3.64053 -0.0284278 -0.0557802 0.0265193 
42 2 1.38509 -1.99915 -1.21573 -0.00669922 -0.0334923 -0.0339411 
43 2 3.46793 -0.145727 -0.988826 0.00480464 0.0250389 -0.0324746 
44 2 1.35919 -0.346108 2.36159 0.00374393 -0.00824947 -0.0681831 
45 2 4.04462 0.0652778 1.82429 0.0417452 -0.00309974 -0.0105799 
46 2 -2.01232 -2.38869 1.14554 0.0587384 -0.00227304 -0.00870931 
47 2 1.86123 1.54684 0.345213 0.111071 0.0154245 -0.0130727 
48 2 3.45556 4.88177 2.18268 -0.000777319 -0.010453 0.045339 
49 2 1.11275 4.33709 1.58213 0.0202459 0.0336263 0.0180011 
50 2 -3.62053 3.77968 1.86232 0.00470011 -0.0428451 0.0447465 
ITEM: TIMESTEP
500
ITEM: NUMBER OF ATOMS
50
ITEM: BOX BOUNDS pp pp pp
-5 5
-5 5
-5 5
ITEM: ATOMS id type x y z vx vy vz 
1 1 -2.04031 -0.80047 -0.188766 0.0375024 0.0304324 0.0412845 
2 1 2.33033 -0.360846 -2.0566 0.0493912 -0.0166247 -0.0324836 
3 1 -4.32805 1.97302 1.84209 0.0283846 0.002988 0.00364072 
4 1 4.77219 -2.05293 3.75116 0.0380548 0.046764 -0.0299334 
5 1 1.66936 2.81337 2.37874 0.00818208 -0.0328841 -0.0290427 
6 1 0.0474099 -1.39696 -0.692574 0.00516559 -0.0112591 -0.0409072 
7 1 -4.44147 -0.564168 0.520973 0.0340683 0.00255131 0.0283694 
8 1 -2.5439 -3.17677 2.86296 0.00139961 -0.0720312 -0.0182618 
9 1 2.22295 -4.50537 1.86552 0.0383713 -0.0491305 -0.000403315 
10 1 1.66203 3.67736 -4.62307 -0.0455668 0.0248744 0.013023 
11 1 3.3252 -4.38946 3.88709 0.0196009 -0.00693975 0.0366477 
12 1 -2.82985 3.75087 0.782313 -0.0588001 -0.0433947 -0.0178408 
13 1 -4.46183 4.32177 3.11611 -0.0451654 -0.0142045 0.00246516 
14 1 4.14254 -3.35428 1.86539 -0.0524493 -0.0110395 0.0317505 
15 1 -3.25411 -3.13439 -0.565376 0.0084077 -0.0190576 -0.0132934 
16 1 -0.627459 4.39487 1.82491 0.00409566 0.0576907 0.0266728 
17 1 3.65421 0.95471 0.315578 0.0454338 0.0474171 -0.0454602 
18 1 0.759525 0.562975 0.591537 -0.0124116 0.054614 -0.0331879 
19 1 4.30931 0.493096 3.01632 -0.0334928 -0.0239026 0.0191566 
20 1 1.90291 -1.96467 3.83237 -0.0664775 -0.0152334 0.00768576 
21 1 2.98435 -1.07327 0.48323 0.00932834 0.0181304 0.0255018 
22 1 -1.24391 0.945394 1.39975 0.000931505 0.0366892 -0.0191755 
23 1 1.7241 -3.49122 -0.510518 -0.0231054 -0.0524734 -0.0249974 
24 1 -0.744169 -4.13115 -0.245865 0.0207933 0.00578647 -0.013001 
25 1 3.66063 2.63443 4.50283 0.062588 0.0283948 -0.014319 
26 2 -1.85536 -4.95315 3.36839 -0.0417982 -0.012112 -0.0446179 
27 2 1.4964 -3.47047 3.19565 0.00777786 0.023588 0.00635815 
28 2 -2.04215 5.42086 -0.485607 -0.0152014 0.0432044 0.00711937 
29 2 3.24671 4.219 4.67607 -0.0333412 0.000512969 0.0224416 
30 2 -1.84608 -1.50103 -1.48035 0.0892965 -0.00850071 0.0537049 
31 2 -3.71668 0.741458 1.45856 0.0293313 -0.00512979 -0.026723 
32 2 0.650019 -4.64434 -0.593886 0.0300899 0.0516721 0.0362106 
33 2 -0.587846 0.188663 0.267471 -0.0015639 0.0254657 0.0269554 
34 2 3.69 -0.778097 4.2045 0.0120208 0.0561728 0.0679513 
35 2 1.20418 2.69681 3.79862 -0.0153512 0.0104402 -0.000357512 
36 2 -0.820324 2.58226 1.68756 0.024405 -0.0400042 -0.102058 
37 2 -5.12642 -3.55819 3.25319 -0.0422943 0.0302229 0.0259345 
38 2 -4.40517 -2.02375 1.02368 0.0416924 -0.00572273 0.0370403 
39 2 2.99691 -2.74361 0.893836 -0.0734122 0.0206014 0.0246052 
40 2 5.10823 1.91031 3.81027 -0.0275477 -0.0501496 0.0290416 
41 2 2.0742 0.810303 -3.30514 -0.0248875 -0.0680863 0.0444104 
42 2 1.22221 -1.94377 -1.19859 -0.00682521 0.0303301 0.0253497 
43 2 3.36398 -0.113073 -0.959392 -0.0202165 -0.0242706 0.0230161 
44 2 1.45316 -0.646471 1.57719 0.0188386 -0.0361934 -0.0975769 
45 2 4.13379 0.022332 1.05251 0.00368115 -0.0290558 -0.0473211 
46 2 -1.49227 -2.49085 0.821373 0.0437688 -0.0127649 -0.0505848 
47 2 2.3049 1.8475 0.411606 -0.0224555 0.0479645 0.032766 
48 2 3.45365 4.80916 2.50792 0.00949383 -0.0040666 -0.00265582 
49 2 0.907493 4.59023 1.81682 -0.0483177 -0.00355041 0.0195219 
50 2 -3.56999 3.39002 1.98316 -0.0114139 -0.0287257 -0.0144222 
