ITEM: TIMESTEP
100
ITEM: NUMBER OF ATOMS
50
ITEM: BOX BOUNDS pp pp pp
-5 5
-5 5
-5 5
ITEM: ATOMS id type x y z vx vy vz 
1 1 2.42887 1.22534 -0.620546 -0.0101774 0.0113439 0.0103574 
2 1 -3.14934 1.67923 1.44214 0.00925493 -0.0101122 0.00222558 
3 1 0.965675 2.68036 4.39568 0.0115205 -0.0251019 -0.0105181 
4 1 4.17186 2.79732 2.25796 -0.0197024 -0.0213162 -0.00835175 
5 1 -0.814748 3.53867 1.8524 -0.0387957 -0.0350399 -0.00939708 
6 1 5.35476 1.64678 -0.46043 0.04549 0.0448295 -0.0319051 
7 1 -2.82424 3.06739 -1.41778 0.0530387 -0.026787 0.0291928 
8 1 0.162024 3.7913 -3.19215 0.0474186 0.0305369 -0.0203787 
9 1 -4.9263 2.01827 -3.46287 -0.021916 -0.0112104 -0.0219489 
10 1 1.88995 4.21897 1.80904 0.00111745 0.00663625 0.00791235 
11 1 2.89896 1.20482 4.75369 -0.014208 0.0217221 0.0357689 
12 1 -4.39939 -2.04402 1.8391 -0.00384854 -0.0168473 -0.0439725 
13 1 3.64016 -0.168828 1.29738 -0.0375826 -0.0145215 0.0326149 
14 1 -3.35126 3.44898 3.31853 -0.00411232 -0.036486 0.0166889 
15 1 0.776954 3.30716 -0.744558 0.00151045 0.0335656 0.00763016 
16 1 -4.56493 0.521993 3.37965 -0.0022808 -0.0157988 0.0123228 
17 1 -1.21343 1.5695 3.4335 0.00147019 0.0303344 0.00670283 
18 1 -2.03782 2.61444 -4.02073 0.0135227 0.0164511 -0.00384968 
19 1 3.15953 3.99438 4.78044 -0.0293516 -0.00864512 0.0135675 
20 1 2.78759 2.48919 -2.99994 -0.0240045 0.0406306 -0.0136078 
21 1 -0.758492 1.45324 -0.117806 -0.0177657 0.0220025 0.0114181 
22 1 -4.29065 4.74934 0.802249 0.0206255 0.00686086 0.0121374 
23 1 1.56805 1.51653 1.84705 -0.00680203 -0.000980895 -0.024816 
24 1 3.72404 3.6996 -0.975228 0.0336626 0.00605628 -0.0278401 
25 1 0.311887 1.05263 -3.37991 -0.00227817 -0.0128418 -0.0179808 
26 2 -2.34597 3.18494 4.64242 0.0247295 -0.0140388 -0.0268885 
27 2 -0.453414 2.43746 -3.8528 -0.0207725 -0.015818 -0.0345161 
28 2 3.33604 3.709 0.625487 0.00430213 -0.0214357 0.016941 
29 2 -3.56243 2.55194 -2.79955 -0.0120225 0.0176264 -0.0176983 
30 2 -0.85346 4.2559 -1.60681 -0.0663123 0.00733269 -0.0384983 
31 2 3.82781 1.52439 -1.25321 0.0373308 0.0136945 -0.0332479 
32 2 4.78068 -0.926043 2.72 -0.0138071 -0.0377925 -0.0164951 
33 2 0.61287 1.59759 -0.883753 -0.0285815 0.0369842 -0.00263645 
34 2 0.0770092 2.13475 2.96018 -0.0180351 0.027481 0.00323944 
35 2 -4.50654 2.15607 2.42462 0.0129991 0.0560784 0.0159228 
36 2 -2.49152 3.91409 1.79648 -0.0379772 0.00846238 0.0237483 
37 2 2.21147 1.19725 -3.81679 0.0126073 0.00511176 -0.00992317 
38 2 -2.71508 1.85832 -0.267926 -0.019611 -0.0566719 0.0295858 
39 2 -2.51057 0.980167 3.32979 0.0452578 -0.0364798 -0.0296779 
40 2 4.08895 3.08519 -3.9351 0.0117164 -0.00449428 0.0514572 
41 2 -4.93388 0.852196 -5.03242 -0.0215251 0.0527954 -0.00240278 
42 2 0.73971 3.51823 0.80737 0.0713612 -0.0273998 -0.0354061 
43 2 -3.94899 -3.70029 1.03808 -0.00403736 -0.0128407 0.00291318 
44 2 2.1323 3.55131 -1.8314 0.00655169 -0.0232822 0.0764922 
45 2 2.81996 3.53549 3.00628 0.0351165 -0.000600704 0.0161005 
46 2 2.47274 0.86155 3.21025 0.0263865 0.0152351 -0.0148114 
47 2 -4.51578 3.68479 -0.548403 -0.036141 -0.00325813 0.0167493 
48 2 -4.96767 0.351801 0.894377 -0.00574643 -0.0174807 -0.0235773 
49 2 1.59762 3.617 -4.54916 -0.0300362 -0.000163715 0.0332126 
50 2 2.09393 0.4823 0.846604 0.0204406 -0.00432599 0.0354434 
ITEM: TIMESTEP
200
ITEM: NUMBER OF ATOMS
50
ITEM: BOX BOUNDS pp pp pp
-5 5
-5 5
-5 5
ITEM: ATOMS id type x y z vx vy vz 
1 1 2.33081 1.44378 -0.600133 -1.01966e-05 0.0356961 -0.0044115 
2 1 -3.28682 1.50092 1.57869 -0.0335588 -0.0286471 0.0200085 
3 1 0.916955 2.55956 4.25637 -0.011034 0.00552851 -0.00648907 
4 1 3.82495 2.6068 2.06067 -0.015615 -0.0237107 -0.00740885 
5 1 -1.14955 3.39184 1.77962 -0.0229294 0.00494869 0.00774946 
6 1 -4.49376 1.91065 -0.732908 -0.0124832 -0.00103911 -0.0181227 
7 1 -2.34535 3.06189 -1.2947 0.037755 0.0263735 -0.0179345 
8 1 0.486696 4.0688 -3.3629 -0.0131888 0.0253508 -0.00777816 
9 1 -4.86495 1.88346 -3.70097 0.0167187 0.00869486 -0.00512443 
10 1 2.15935 4.09281 1.71786 0.0440867 -0.0228963 -0.0165289 
11 1 3.15367 1.13778 4.81101 0.0497347 -0.0210975 -0.0142762 
12 1 -4.45952 -2.24937 1.40709 -0.0128463 -0.0123567 -0.0337189 
13 1 3.47519 -0.238943 1.82569 0.010146 -0.00080209 0.0580653 
14 1 -3.38462 3.12132 3.46361 -0.0120072 -0.00666917 0.00894511 
15 1 0.849445 3.64493 -0.762549 0.0065372 0.0172908 0.00760727 
16 1 -4.56998 0.396296 3.55372 -0.0008717 -0.0099097 0.0211071 
17 1 -1.34461 1.77319 3.78927 -0.0256109 0.00444888 0.0462708 
18 1 -2.13281 2.83132 -3.99277 -0.0166533 0.0293159 0.0116046 
19 1 2.96973 3.87996 4.91606 0.000630195 -0.0105246 0.0122425 
20 1 2.46205 2.85837 -2.97504 -0.0227751 0.0135306 0.0195048 
21 1 -0.956801 1.51671 -0.140197 -0.0174898 -0.0186328 -0.0104414 
22 1 -3.95997 4.67079 0.87462 0.0368893 -0.0240859 0.0132717 
23 1 1.42376 1.60403 1.90593 -0.0185612 0.0160403 0.0209669 
24 1 3.93813 3.64245 -1.00956 0.00194015 -0.019776 0.0167122 
25 1 0.48855 1.08304 -3.47327 0.0318837 0.0167458 0.00153104 
26 2 -2.11623 3.02219 4.23925 0.0297114 -0.0293523 -0.0220988 
27 2 -0.499167 2.07248 -4.10397 -0.000198949 -0.0481232 -0.0267535 
28 2 3.42883 3.46891 0.966005 0.0109064 -0.0221925 0.0409324 
29 2 -3.35151 2.58876 -2.90131 0.0446476 -0.0138952 -0.00519566 
30 2 -1.369 3.97094 -2.04304 -0.0320852 -0.0552505 -0.0410034 
31 2 4.15162 1.77167 -1.62296 0.0241329 0.0285292 -0.0356633 
32 2 4.70659 -1.33993 2.54029 -0.00455185 -0.0279328 -0.0202888 
33 2 0.243478 1.85887 -1.00614 -0.0420641 0.0157293 -0.0197517 
34 2 0.0411923 2.5485 2.87654 -5.93034e-05 0.0349382 -0.0113782 
35 2 -4.38905 2.60764 2.58765 -0.024444 0.000350884 0.0030914 
36 2 -2.6744 3.7804 1.9712 0.0134403 -0.0181093 -0.0106911 
37 2 1.99238 1.29715 -3.84457 -0.0451312 0.0129812 -0.00250629 
38 2 -2.63434 1.4784 0.0675795 0.040003 5.8692e-06 0.0222253 
39 2 -2.32085 0.618998 2.75096 -0.00101066 -0.0156481 -0.0692356 
40 2 3.82118 3.26986 -3.62003 -0.0464956 0.0373124 0.00939284 
41 2 -5.27526 1.34972 4.88903 -0.0344667 0.0292228 -0.0229502 
42 2 1.06321 3.26997 0.939114 -0.00814356 -0.022831 0.0420646 
43 2 -4.16082 -3.63961 1.16057 -0.0285904 0.00605397 0.0113918 
44 2 2.26348 3.33619 -1.38514 0.0194817 -0.0125843 0.00299743 
45 2 3.02644 3.60122 3.4364 -0.00147411 0.0167053 0.0531299 
46 2 2.74893 1.22511 3.22368 0.0226634 0.0442373 0.00486251 
47 2 -4.57655 3.62311 -0.378619 0.0373054 -0.00533679 0.0153097 
48 2 -4.97612 0.374831 0.564 -0.000808652 0.0195583 -0.0206162 
49 2 1.47421 3.64508 -4.31079 0.0129739 0.00402354 0.00360575 
50 2 2.34675 0.495122 0.850577 0.0135713 0.0177909 -0.0242237 
ITEM: TIMESTEP
300
ITEM: NUMBER OF ATOMS
50
ITEM: BOX BOUNDS pp pp pp
-5 5
-5 5
-5 5
ITEM: ATOMS id type x y z vx vy vz 
1 1 2.42248 1.72612 -0.535788 0.0157799 0.0108755 0.0237013 
2 1 -3.60261 1.23762 1.47174 -0.022242 -0.0138423 -0.0422447 
3 1 0.89265 2.78756 4.3942 0.0020076 0.0353415 0.0316447 
4 1 3.98071 2.19268 2.40915 -0.00126619 -0.0276649 0.0393281 
5 1 -1.02137 3.359 2.03341 0.0395742 -0.0190453 0.034991 
6 1 -4.53657 1.64116 -0.712734 0.0075599 -0.0411412 0.0165512 
7 1 -2.38566 3.18315 -1.43232 -0.0312878 -0.00570582 -0.00147976 
8 1 0.0119234 4.24533 -3.42013 -0.0507186 0.00685987 -0.00622142 
9 1 -4.79271 2.25038 -3.49621 -0.00316046 0.0508046 0.0370006 
10 1 2.38393 4.01991 1.75333 0.00654123 0.00139242 0.0285561 
11 1 3.1513 1.08452 4.70352 -0.0420112 0.0142831 -0.00179465 
12 1 -4.68439 -2.18484 1.24544 -0.0250932 0.000331213 -0.00165846 
13 1 3.5651 -0.144234 2.0816 -0.0032217 0.0204747 -0.0134711 
14 1 -3.56005 3.27682 3.42224 -0.0165871 0.0130341 -0.0179344 
15 1 0.829778 3.51556 -0.498118 -0.014898 -0.0386487 0.0320968 
16 1 -4.49529 0.354355 3.77132 0.0231766 0.00457587 0.0206647 
17 1 -1.37794 1.41611 4.04083 0.00921445 -0.0500801 0.00966638 
18 1 -2.03031 3.08317 -3.86418 0.029187 0.00586934 -0.00160269 
19 1 3.10909 3.8393 5.12664 0.00814573 0.0113587 -0.00337449 
20 1 2.47429 2.74768 -2.89318 0.0223889 -0.0186239 -0.00814409 
21 1 -0.980242 1.14171 -0.232737 0.0210471 -0.0422688 -0.0125907 
22 1 -3.71256 4.37471 1.05585 0.00294938 -0.0252761 0.00628089 
23 1 1.24556 1.79642 2.01968 -0.0110161 0.0183888 -0.000147973 
24 1 3.96244 3.48959 -0.741178 0.0136913 -0.00114133 0.0353636 
25 1 0.449413 1.27005 -3.28322 -0.0403474 0.0237507 0.0266575 
26 2 -2.21747 2.96202 4.35962 -0.0558652 0.0162165 0.0286885 
27 2 -0.607801 1.63321 -4.53194 -0.0076731 -0.0454125 -0.0487078 
28 2 3.56964 3.32067 0.937554 0.0194609 -0.016627 -0.0360861 
29 2 -3.17676 2.26293 -2.95779 -0.0132444 -0.0391879 -0.00221101 
30 2 -1.14189 3.73401 -2.72364 0.0549991 0.0110158 -0.0891152 
31 2 4.33786 2.02487 -1.94248 0.0155151 0.0203924 -0.0234258 
32 2 4.61928 -1.28663 2.36994 -0.011287 0.0369507 -0.0114129 
33 2 -0.0161698 2.03963 -1.23814 -0.00620733 0.0139723 -0.023332 
34 2 -0.0288996 2.56197 3.04104 -0.00769983 -0.0302738 0.0434047 
35 2 -4.66696 2.17786 2.56303 0.0266966 -0.0633256 0.00780323 
36 2 -2.55696 3.75644 1.71006 0.00906096 0.0105871 -0.0126716 
37 2 2.0031 1.39025 -4.01111 0.0403894 0.00769545 -0.025073 
38 2 -2.29273 1.78765 0.121891 0.00967078 0.0480814 -0.0137138 
39 2 -2.45678 0.671079 2.3772 -0.0192676 0.0117275 0.00605301 
40 2 3.6956 3.67334 -3.61309 0.0326686 0.0316897 0.0152712 
41 2 4.87309 1.38793 4.77689 0.0444295 -0.0158561 0.0118998 
42 2 0.953004 3.15215 1.04264 -0.00508257 0.00519899 -0.0203411 
43 2 -4.34888 -3.90349 1.16862 -0.0113997 -0.036792 -0.00485555 
44 2 2.27139 3.27279 -1.3125 -0.0169692 -0.00672351 0.020396 
45 2 2.84232 3.87884 3.53377 -0.0302604 0.0336618 -0.0266078 
46 2 2.80684 1.38127 3.05856 -0.0110063 -0.0205423 -0.0245581 
47 2 -4.06717 3.54 -0.347818 0.0490834 -0.0153551 -0.0176381 
48 2 -4.88322 0.751993 0.555694 0.021111 0.04872 0.0114331 
49 2 1.34344 3.7694 -4.32187 -0.0532835 0.0178197 0.00524399 
50 2 2.34271 0.844002 0.706209 -0.0132527 0.0424646 -0.00228218 
ITEM: TIMESTEP
400
ITEM: NUMBER OF ATOMS
50
ITEM: BOX BOUNDS pp pp pp
-5 5
-5 5
-5 5
ITEM: ATOMS id type x y z vx vy vz 
1 1 2.69385 1.8396 -0.33008 0.0419527 0.0172189 0.0152915 
2 1 -3.38611 1.28597 1.37514 0.051827 0.0140008 0.0259529 
3 1 0.760436 2.95092 4.59702 -0.0273888 -0.0195589 -0.00447819 
4 1 3.96522 2.25837 2.51707 0.0206211 0.0196533 -0.0119858 
5 1 -0.842168 3.16756 2.27839 -0.00221273 -0.00959584 0.0104744 
6 1 -4.46323 1.44703 -0.924444 0.0010923 -0.00343593 -0.0552101 
7 1 -2.68849 2.94566 -1.34101 -0.00538828 -0.0382147 -0.003485 
8 1 0.188001 4.75424 -3.58042 0.0113062 0.0855199 0.0129273 
9 1 -4.80252 2.70065 -3.19524 0.0121451 0.0350742 0.0115386 
10 1 2.47389 4.0393 1.90093 0.000254429 0.0074937 -0.0283367 
11 1 2.86052 1.16497 4.6329 -0.00486289 -0.0110697 -0.023009 
12 1 -4.90569 -2.39369 1.3938 -0.0196608 -0.0347899 0.0318936 
13 1 3.38687 0.148451 1.67245 -0.020669 0.030126 -0.0557193 
14 1 -3.53814 3.12221 3.25375 0.0235479 -0.0335147 -0.0113044 
15 1 0.567832 3.0978 -0.543385 -0.0269258 -0.0351375 -0.0308337 
16 1 -4.10272 0.550635 3.79232 0.0430214 0.0359362 -0.014617 
17 1 -1.39617 1.10937 3.88834 -0.00166537 -0.0206364 -0.035833 
18 1 -2.05283 2.71772 -4.17379 -0.0315012 -0.059565 -0.0352386 
19 1 3.11495 4.17472 -5.12489 0.00169881 0.0463076 -0.0226997 
20 1 2.81799 2.66077 -2.87037 0.0379207 -0.000141816 0.0162334 
21 1 -0.839656 1.01094 -0.397184 0.00243087 0.0148064 -0.0220168 
22 1 -3.81768 4.26691 0.824718 -0.0011099 0.00388949 -0.0351879 
23 1 1.28157 1.7961 2.00888 0.013512 -0.0191463 0.00696309 
24 1 4.25484 3.61444 -0.579295 0.0405728 0.0202737 -0.0135718 
25 1 -0.0130306 1.64205 -3.09743 -0.045021 0.0492146 0.0128842 
26 2 -2.8733 3.17588 4.63421 -0.0614194 0.0215952 0.019463 
27 2 -0.543572 1.17237 -4.6303 0.00282899 -0.038244 0.0318099 
28 2 3.69904 3.18536 0.851625 0.00647038 -0.00995049 0.0352402 
29 2 -3.22231 2.09489 -2.86635 0.00590686 0.00101147 0.0229579 
30 2 -1.26273 3.70667 -3.17176 -0.0339601 -0.00382082 -0.0207087 
31 2 4.36918 2.09119 -1.84822 -0.0157086 -0.00480377 0.0414499 
32 2 4.56517 -0.889251 2.24235 -0.00103085 0.0261663 -0.0192159 
33 2 0.000931037 1.91546 -1.49761 0.00428299 -0.0414929 -0.0288476 
34 2 0.0350319 2.19933 3.35786 0.0121953 -0.0282837 0.00527809 
35 2 -4.32001 1.79956 2.79234 -0.00190985 0.00591454 0.0264897 
36 2 -2.30182 3.88325 1.99216 0.0212172 0.00540223 0.0501593 
37 2 2.27802 1.67088 -4.07179 0.00746107 0.0545811 0.0212717 
38 2 -2.12649 1.95705 -0.207969 0.0261437 -0.0238676 -0.0321945 
39 2 -2.4954 0.682306 2.74835 0.0250379 -0.0112235 0.0584324 
40 2 4.06794 3.85512 -3.59596 0.0228826 0.00774785 -0.0259255 
41 2 5.00803 1.20847 5.08582 -0.0162978 -0.0196596 0.0372815 
42 2 0.844537 3.28723 1.19722 -0.0208423 0.0154854 0.0459425 
43 2 -4.47711 -4.15923 1.12791 -0.0174765 -0.0158111 -0.00389113 
44 2 2.15694 3.11414 -1.22228 -0.00220131 -0.022298 -0.00738963 
45 2 2.55858 4.02512 3.36701 -0.017292 -0.00923818 0.016836 
46 2 2.68414 1.07767 3.04752 0.00048556 -0.0174295 0.0198156 
47 2 -3.87826 3.47338 -0.678698 -0.0309613 0.0154552 -0.0244051 
48 2 -4.91664 0.987367 0.541935 -0.0223627 0.00578197 -0.0181263 
49 2 1.04144 3.87608 -4.3081 0.0252128 -0.000734469 -0.0157001 
50 2 2.08664 1.02499 0.876058 -0.0341601 -0.00699186 0.0233451 
ITEM: TIMESTEP
500
ITEM: NUMBER OF ATOMS
50
ITEM: BOX BOUNDS pp pp pp
-5 5
-5 5
-5 5
ITEM: ATOMS id type x y z vx vy vz 
1 1 3.14335 2.01119 -0.174548 0.036226 0.014069 0.0114053 
2 1 -3.02383 1.31114 1.4918 0.0205252 -0.00749881 -0.0116691 
3 1 0.696337 2.68115 4.62409 0.0277726 -0.00986326 0.0209732 
4 1 4.24424 2.40851 2.34386 0.00996306 0.0141607 -0.0117354 
5 1 -0.735103 3.24988 2.22537 0.026868 0.0216849 -0.0172785 
6 1 -4.51341 1.26642 -1.2974 -0.010365 -0.0274868 -0.0159838 
7 1 -2.48379 2.73308 -1.5485 0.0347644 0.00518689 -0.0106628 
8 1 0.163704 5.22821 -3.46353 -0.00537477 -0.000634299 -0.00280593 
9 1 -4.55464 2.95665 -3.38426 0.0235012 0.0234859 -0.0507002 
10 1 2.29754 4.0814 1.55906 -0.0321205 -0.00733483 -0.016209 
11 1 3.01609 1.09194 4.7356 0.0411129 0.00777776 0.0428293 
12 1 -5.08306 -2.74148 1.77719 -0.0163224 -0.0297184 0.0363676 
13 1 3.45317 0.231403 1.28506 0.0351719 -0.0173821 -0.0137312 
14 1 -3.19814 3.12679 3.2779 0.0241459 0.0342802 0.022895 
15 1 0.598094 2.91331 -0.803308 0.0383836 -0.00887517 -0.0187508 
16 1 -3.9666 0.803091 3.85483 -0.0211628 0.0129252 0.0302292 
17 1 -0.887786 0.862916 3.80115 0.0824002 -0.0363186 0.0216781 
18 1 -2.49314 2.29308 -4.22986 -0.0453483 -0.0242249 0.0149724 
19 1 3.06434 4.4377 4.89196 -0.0170034 -0.00624519 0.0216118 
20 1 2.99669 2.71453 -2.72852 -0.00666729 0.00771046 0.00490281 
21 1 -0.79374 0.940065 -0.609763 0.00731052 -0.0455609 -0.0110823 
22 1 -3.67155 4.50829 0.661671 0.0210434 0.0384534 0.00316967 
23 1 1.34521 1.64347 2.28722 0.00850431 -0.00932798 0.0323826 
24 1 4.42807 3.74419 -0.759909 -0.0255049 0.00775123 -0.0170122 
25 1 -0.310153 2.145 -3.15671 -0.0133075 0.0467454 -0.0185728 
26 2 -3.38728 3.24911 4.81373 -0.0410139 -0.0144877 0.0310674 
27 2 -0.784772 1.08056 -4.28879 -0.0453788 0.0249714 0.0176191 
28 2 3.65194 3.19615 1.22844 -0.0238094 0.0141194 0.0103161 
29 2 -3.27899 2.06839 -2.60682 -0.0283144 -0.0143881 0.0103171 
30 2 -1.29812 3.62654 -3.3487 0.0252652 -0.0230549 -0.00912383 
31 2 4.07911 2.15363 -1.54666 -0.0255622 0.0183523 0.00617273 
32 2 4.51984 -0.922255 1.95891 -0.0094826 -0.0337063 -0.0356933 
33 2 0.0356834 1.49378 -1.6747 0.00261027 -0.022292 -0.0129236 
34 2 -0.0296149 1.94547 3.23358 -0.0170291 -0.0247067 -0.0122901 
35 2 -4.46592 2.10899 2.78947 0.0142642 0.0295851 -0.0145727 
36 2 -2.27534 3.67296 2.38002 -0.00159853 -0.0380487 0.0119186 
37 2 2.29998 2.04702 -4.00101 -0.0056172 0.00547617 -0.0164321 
38 2 -2.10524 1.67391 -0.207462 -0.0266587 -0.0177575 0.030122 
39 2 -2.43768 0.620986 3.17504 -0.02384 0.00882882 0.0240267 
40 2 4.16946 3.88636 -3.91256 0.00363972 0.000906604 -0.0241038 
41 2 -5.20632 0.962945 -4.68259 -0.0185205 -0.0270359 0.00575318 
42 2 0.618284 3.38391 1.49036 -0.0135272 0.00794521 0.00224272 
43 2 -4.68495 -4.23999 1.093 -0.0197562 0.00102867 0.000322665 
44 2 2.09628 2.98082 -1.24804 -0.0174839 0.00598267 0.0120669 
45 2 2.55686 3.81564 3.44444 0.0131536 -0.0229344 -0.0126111 
46 2 2.80694 1.13512 3.09705 0.0148627 0.0208447 -0.0126091 
47 2 -4.14243 3.74074 -0.763249 0.0241377 0.0316042 -0.000313689 
48 2 -5.06172 1.07573 0.274088 -0.0123134 0.00851855 -0.0268507 
49 2 1.21107 4.17665 -4.39373 -0.00995956 0.0625731 -0.000895819 
50 2 1.87654 0.912924 0.77721 -0.00258387 -0.00608447 -0.0307482 
