ITEM: TIMESTEP
100
ITEM: NUMBER OF ATOMS
50
ITEM: BOX BOUNDS pp pp pp
-5 5
-5 5
-5 5
ITEM: ATOMS id type x y z vx vy vz 
1 1 -4.32227 -2.9102 -4.48424 -0.0130484 0.0658751 -0.00836633 
2 1 3.23063 -2.37813 4.84046 -0.00761377 -0.0204698 0.0203759 
3 1 -0.402715 -4.63429 0.268697 -0.00209019 0.0223255 0.0223703 
4 1 0.187697 -3.27722 1.93689 -0.0157528 -0.00944865 0.0115744 
5 1 -1.41363 0.172146 4.5975 0.0223366 -0.021368 0.0489586 
6 1 -4.39529 -0.142122 4.28098 -0.0183176 -0.0443447 0.0105418 
7 1 2.72102 3.90684 2.91589 -0.0221496 0.0609763 -0.00164851 
8 1 -2.27676 -4.87939 -4.53161 0.0221118 -0.0177262 0.0186804 
9 1 -2.70268 -2.28406 2.95591 -0.0447568 0.00867635 -0.00995153 
10 1 4.36929 4.66918 -3.84838 -0.0396433 0.0136896 -0.0135948 
11 1 1.9344 -4.54618 0.190693 -0.00369806 0.0554069 -0.0592815 
12 1 -4.27835 3.00411 3.88271 -0.00987644 -0.0108405 0.0171455 
13 1 -0.621731 1.13684 1.23653 0.0167377 -0.0767423 -0.0189695 
14 1 -2.59948 1.44273 3.32067 0.0179603 -0.0170383 -0.0488303 
15 1 -3.62577 2.29699 -3.83829 -0.0042769 -0.0409582 -0.0233795 
16 1 4.82222 -4.10773 3.41798 0.0245953 -0.0402027 -0.0412766 
17 1 0.701953 -1.61503 3.60763 0.00812392 -0.019282 0.0101973 
18 1 0.776995 3.53642 1.13418 -0.034728 0.0242776 -0.0179873 
19 1 -1.39499 -2.85251 -4.9885 0.0156943 -0.0372277 -0.027213 
20 1 -1.96494 4.56272 2.80093 -0.00219872 -0.00338578 0.0585393 
21 1 0.326879 5.20569 3.89616 0.0192991 0.0227654 0.0342057 
22 1 -0.911031 3.11217 5.39352 -0.0073691 0.049266 0.0438256 
23 1 -2.08837 3.43253 0.169142 -0.0203715 -0.0128672 -0.0106875 
24 1 1.68867 3.59684 -4.67932 0.037422 -0.0265704 -0.00262523 
25 1 -0.117188 4.55591 -2.34699 0.0194318 0.0154694 0.00575494 
26 2 4.9165 3.85744 3.06626 -0.0170818 -0.0216733 0.0154086 
27 2 -0.268971 1.07957 2.7976 -0.0146705 -0.00148286 -0.0340816 
28 2 3.23242 3.977 -3.79096 0.0337051 0.0365178 0.00608937 
29 2 -1.59008 1.6117 -4.60887 -0.023895 0.0356407 0.0271251 
30 2 0.750942 5.05763 -0.652737 0.0193959 0.0231021 -0.00128815 
31 2 0.837197 -4.85015 1.66984 -0.0144798 -0.000107147 0.0261904 
32 2 2.72694 4.14975 1.1913 0.0146176 0.00468289 0.057057 
33 2 1.33318 -2.76206 4.50271 -0.00628974 0.0140236 -0.0579268 
34 2 -1.84167 4.79502 1.26764 0.0060997 0.00544017 -0.0048747 
35 2 4.54357 -1.53048 -5.14237 -0.0479598 0.026613 -0.0412438 
36 2 -0.281916 2.53215 0.870098 -0.0444116 0.0226743 0.0456406 
37 2 -1.19779 -3.21179 2.25716 0.00988244 0.0177636 0.00183711 
38 2 -3.59444 3.928 -4.26991 0.0126516 -0.0367618 0.0263097 
39 2 -0.96858 -1.28759 3.9298 0.00667554 0.00891833 0.0251653 
40 2 -2.91243 -0.150949 3.4933 0.0144386 0.0138958 -0.0332652 
41 2 1.11858 -2.72241 0.833595 -0.013164 -0.0286377 0.0032822 
42 2 0.171795 3.96313 -3.82506 -0.0100112 -0.031776 -0.00814502 
43 2 -1.12545 3.6867 -1.28588 0.00886471 0.0451966 3.88937e-05 
44 2 1.46386 3.53015 3.92836 -0.0173649 0.0141976 0.00110906 
45 2 -1.04922 -4.80217 4.24047 0.0518606 -0.0285003 0.0299073 
46 2 -2.91419 -2.94212 -4.82363 0.0598887 -0.0438298 -0.00846769 
47 2 -4.0697 -2.96079 2.49508 0.0242599 -0.0358076 -0.0572547 
48 2 -2.29339 2.83975 3.50189 0.0271363 0.0123743 0.0219392 
49 2 4.15465 -3.8201 -4.89359 -0.00153029 -0.014036 0.00265017 
50 2 -4.29081 1.51638 -5.13976 -0.0364397 0.0213159 -0.0615603 
ITEM: TIMESTEP
200
ITEM: NUMBER OF ATOMS
50
ITEM: BOX BOUNDS pp pp pp
-5 5
-5 5
-5 5
ITEM: ATOMS id type x y z vx vy vz 
1 1 -4.47844 -2.33249 -4.65218 -0.00790056 0.0225534 -0.0247329 
2 1 2.98817 -2.71088 4.93741 -0.0325312 -0.0386591 -0.0146889 
3 1 -0.778046 -4.46437 0.400938 -0.055758 0.0136771 -0.00791704 
4 1 0.270862 -3.31939 2.06114 0.0181608 0.0050939 0.023778 
5 1 -1.19639 0.0406411 4.95605 0.0105362 0.00339978 0.0235129 
6 1 -4.57449 -0.307284 4.27922 -0.0111889 0.0432381 -0.0320934 
7 1 2.56714 4.42661 2.85555 -0.00703625 0.037538 0.0146909 
8 1 -2.46897 -5.06144 -4.36312 -0.0483982 0.00158896 0.015915 
9 1 -2.88681 -2.18029 2.72615 0.00525007 0.00396019 -0.0367828 
10 1 4.47793 5.03178 -4.13046 0.0208527 0.00949278 -0.0256448 
11 1 2.05505 -3.88931 -0.039239 0.00336667 0.0656357 -0.00110227 
12 1 -4.30205 3.03035 4.05687 -0.00366528 0.0294021 -0.00492681 
13 1 -0.352064 0.582938 1.20866 0.0325626 -0.0275125 -0.00239707 
14 1 -2.18642 1.38639 2.86161 0.0606609 0.0108927 -0.0359687 
15 1 -3.44112 1.92123 -4.18663 0.041069 -0.0314381 -0.0349735 
16 1 5.18889 -4.55283 2.90759 0.0420439 -0.0438327 -0.0544335 
17 1 0.540929 -1.46964 3.6676 -0.0177013 0.0439294 -0.00544615 
18 1 0.579711 3.72936 1.16424 -0.0151587 0.00821226 0.0263541 
19 1 -1.00777 -2.96825 -5.51909 0.026639 -0.0139698 -0.0634832 
20 1 -1.80903 4.52022 3.12885 0.041387 0.00686673 -0.00353215 
21 1 0.84186 -4.71878 4.12793 0.0450371 -0.00878446 0.0216703 
22 1 -1.06516 3.10522 -4.54115 -0.00724748 -0.0324234 -0.0211038 
23 1 -1.90865 3.44377 0.0798658 0.0470661 0.00815852 -0.00501455 
24 1 2.02354 3.33617 -4.38968 -0.00565726 -0.0303729 0.020794 
25 1 0.147201 4.51651 -2.0795 0.0263377 -0.0204161 0.0305688 
26 2 4.61895 4.04871 3.33079 -0.0259125 0.04856 0.0435253 
27 2 -0.558157 0.752742 2.6482 -0.0430449 -0.0595262 0.0149636 
28 2 3.02655 3.93347 -3.74033 -0.00361245 -0.000482738 0.0132908 
29 2 -1.86911 1.73719 -4.20856 -0.030605 -0.0186985 0.0395313 
30 2 0.858772 -4.77894 -0.909626 0.0135049 0.0140464 -0.0226711 
31 2 0.420012 -4.91094 2.12973 -0.0565204 -0.00611009 0.0498281 
32 2 2.80989 4.19513 1.46217 -0.00267563 0.0105419 -0.0297106 
33 2 1.43602 -2.91907 3.93586 0.0198932 -0.046127 -0.0494706 
34 2 -1.81848 4.64158 1.08649 -0.00976334 -0.00765693 -0.0137467 
35 2 4.30043 -1.30259 4.53693 -0.00848573 -0.00257096 -0.0110921 
36 2 -0.844023 2.66471 1.01638 -0.0478475 -0.00909708 -0.0163119 
37 2 -1.3416 -2.8425 2.5563 -0.0156423 0.0464709 0.0491358 
38 2 -3.45194 3.70395 -4.06137 0.00724454 -0.0136945 0.00910555 
39 2 -0.697902 -1.41195 4.51018 0.0337985 -0.014901 0.0875467 
40 2 -3.02143 -0.107589 3.26127 -0.0259938 -0.0149205 -0.00967802 
41 2 1.08252 -2.93676 0.757721 0.00421489 -0.0161617 -0.0159803 
42 2 0.275538 3.79753 -3.68296 0.0300855 -0.0127837 0.0395824 
43 2 -1.28466 4.20449 -1.286 -0.0339495 0.0515721 0.000947376 
44 2 1.45226 3.92411 3.85621 0.0246672 0.0504414 0.0121058 
45 2 -0.994338 -4.96574 4.68938 -0.00883388 -0.003267 0.0382225 
46 2 -2.58208 -3.51243 -4.85478 -0.00410125 -0.0486707 0.00245618 
47 2 -4.00126 -3.42695 2.27038 -0.0050329 -0.047026 0.00929467 
48 2 -2.3227 3.22676 3.56993 -0.0358779 0.0267914 0.00434489 
49 2 4.3866 -3.84112 -5.01316 0.0362328 0.0342727 -0.0266227 
50 2 -4.61019 1.518 4.36172 -0.0204691 -0.0272326 -0.0216394 
ITEM: TIMESTEP
300
ITEM: NUMBER OF ATOMS
50
ITEM: BOX BOUNDS pp pp pp
-5 5
-5 5
-5 5
ITEM: ATOMS id type x y z vx vy vz 
1 1 -4.5067 -2.42477 -5.06523 0.0197545 -0.0122264 -0.058525 
2 1 2.8514 -3.02748 4.49867 0.0166055 -0.0208636 -0.0637397 
3 1 -1.25452 -4.16761 0.113451 -0.0415877 0.0397223 -0.0414115 
4 1 0.527905 -3.30786 2.25283 0.0297895 -0.00808346 0.0124658 
5 1 -1.24504 0.054969 5.15978 -0.014489 -0.0168516 0.0202235 
6 1 -4.70129 0.228777 3.65487 -0.0150848 0.0183125 -0.0777592 
7 1 2.85054 4.63345 2.83125 0.0505075 0.00636579 -0.0114036 
8 1 -2.81242 5.01427 -4.26759 -0.0157922 0.00134783 0.00133577 
9 1 -2.85645 -2.19075 2.38852 -0.000315895 -5.33144e-06 -0.0186883 
10 1 4.51101 -5.20435 -4.44425 -0.0162951 -0.035753 -0.0469835 
11 1 1.976 -3.58101 -0.16168 -0.0201681 -0.00627769 -0.020657 
12 1 -4.33784 3.25094 3.93244 -0.00060196 0.00193984 -0.00287423 
13 1 -0.0752454 0.488243 1.22335 0.0154403 0.0031633 0.00794269 
14 1 -1.75302 1.59002 2.60695 0.0195471 0.0273985 -0.0185132 
15 1 -3.3294 1.7996 -4.4823 -0.0199 0.00852409 -0.0240637 
16 1 -4.50647 -4.96223 2.46321 0.0265949 -0.0256863 -0.035606 
17 1 0.413525 -0.978839 3.5956 -0.0330814 0.0442403 0.000735983 
18 1 0.470754 3.82251 1.57726 0.00239231 0.0161896 0.0445107 
19 1 -1.21976 -3.2816 4.23661 -0.0602824 -0.032645 0.0307144 
20 1 -1.3576 4.64445 2.91303 0.00106795 -0.000505432 -0.021462 
21 1 0.775585 -4.67796 4.49828 -0.0384858 -0.00224731 0.0433087 
22 1 -1.0171 2.98723 -4.68325 0.00707621 0.0127171 0.000188926 
23 1 -1.61554 3.45264 -0.0774413 0.00580033 -0.00556136 -0.0169248 
24 1 1.73876 3.18317 -4.26794 -0.0121717 0.0149383 0.0128416 
25 1 0.261963 4.26275 -1.95483 0.00311482 -0.0149147 0.00432161 
26 2 4.44211 4.46056 3.82051 -0.00276715 0.0269367 0.0333828 
27 2 -0.793976 0.0972459 2.88202 0.0155473 -0.0532637 0.0218047 
28 2 3.37852 4.14031 -3.6324 0.04598 0.0252603 0.00187383 
29 2 -1.75101 1.27352 -4.07952 0.0430777 -0.0536049 -0.019731 
30 2 1.09575 -4.63585 -0.957753 0.0211199 0.00800847 -0.00301233 
31 2 -0.172528 -4.94831 2.52794 -0.0292575 -0.00111575 0.0251634 
32 2 2.55717 4.42039 1.13516 -0.0452749 0.0333236 -0.00907459 
33 2 1.51021 -3.36264 3.55993 0.00208858 -0.0376964 -0.0187838 
34 2 -2.02919 4.78854 1.18877 -0.018254 0.0177221 0.0198957 
35 2 4.36132 -1.31136 4.56192 0.0128304 0.0247798 0.00149741 
36 2 -0.931029 2.17666 0.923319 0.0208084 -0.0708276 0.00839411 
37 2 -1.21325 -2.42496 2.9691 0.0359511 0.0336035 0.0184419 
38 2 -3.58995 3.56023 -4.12351 -0.0272621 -0.0120042 -0.0176908 
39 2 -0.300605 -1.41692 5.35316 0.0451039 0.0155323 0.058868 
40 2 -3.29871 -0.423311 3.24371 -0.033356 -0.0456568 -0.000549975 
41 2 0.933746 -2.90332 0.871722 -0.031613 0.0225186 0.0331144 
42 2 0.574045 3.46458 -3.29797 0.0205436 -0.0510846 0.0290275 
43 2 -1.51041 4.68602 -1.23899 -0.000286034 0.0413221 0.0134928 
44 2 1.9375 4.08252 4.20632 0.0486778 -0.00402985 0.044168 
45 2 -0.869453 -5.0927 4.80378 0.0268983 -0.0202572 -0.00751189 
46 2 -2.95348 -3.55229 -4.8642 -0.051621 0.0323591 -0.00652016 
47 2 -3.84258 -3.52694 2.36848 0.034202 0.0208916 0.00492554 
48 2 -2.7693 3.2389 3.60813 -0.0322629 -0.0131694 -0.0076481 
49 2 4.58407 -3.46874 4.92742 -0.0227892 -0.0073289 0.0234977 
50 2 -4.64245 1.55733 4.44281 0.0124796 0.054543 0.0329966 
ITEM: TIMESTEP
400
ITEM: NUMBER OF ATOMS
50
ITEM: BOX BOUNDS pp pp pp
-5 5
-5 5
-5 5
ITEM: ATOMS id type x y z vx vy vz 
1 1 -4.30086 -2.47682 4.28984 -0.00264711 0.00705485 -0.0627773 
2 1 3.22271 -3.16313 3.95923 0.0399574 -0.00327591 -0.0329871 
3 1 -1.63857 -3.89156 -0.176865 -0.0318633 0.0125253 -0.00848017 
4 1 0.590853 -3.44782 2.44055 -0.0158679 -0.0100864 0.0185133 
5 1 -1.33665 -0.485477 -4.6477 -0.0141605 -0.0539301 0.0347953 
6 1 -4.80976 0.221659 3.21561 -0.00447849 -0.0209235 -0.000404052 
7 1 3.14445 4.58544 2.86514 -0.000234889 -0.0141894 0.0122485 
8 1 -3.05567 -5.0151 -4.29267 -0.0386206 -0.00447483 0.000661221 
9 1 -2.71134 -2.03313 2.4304 0.032228 0.0303442 0.0175643 
10 1 4.23991 4.66924 -4.8336 -0.0411087 0.0140946 -0.0112732 
11 1 1.61815 -3.76429 -0.0955079 -0.0485733 -0.023823 0.037697 
12 1 -4.37156 3.19706 4.00904 0.00201983 0.00616664 -0.00508298 
13 1 -0.0104684 0.465782 1.33024 0.0108125 -0.0262542 0.0188839 
14 1 -1.72576 1.83148 2.51518 -0.00767237 0.0195152 0.00584124 
15 1 -3.385 1.92297 -4.48337 0.0198849 0.00705811 0.0269315 
16 1 -4.0384 -4.8239 2.16411 0.0546601 0.0402417 -0.0264668 
17 1 0.0182589 -1.03577 3.76472 -0.0244889 -0.0617893 0.0254941 
18 1 0.802298 4.08484 1.86501 0.0575449 0.0256374 0.0104853 
19 1 -1.86523 -3.34499 4.5659 -0.0305941 0.0181299 0.0106112 
20 1 -2.01127 4.50843 2.7942 -0.0588786 -0.0141436 -0.00772604 
21 1 0.653225 -4.78344 4.6532 0.0168305 -0.00729188 -0.0224186 
22 1 -0.938662 3.14054 -4.55097 0.0129545 0.00286861 0.0235354 
23 1 -1.66435 3.44297 -0.0921864 -0.00846264 0.0137966 0.0138172 
24 1 2.05195 3.48558 -4.11199 0.060974 0.0304714 0.0381757 
25 1 0.316628 4.3038 -1.88896 0.0014733 0.00937273 0.00149962 
26 2 4.70298 4.48211 3.44457 0.0475514 -0.0129926 -0.0966133 
27 2 -0.517859 0.237292 2.89127 0.0218395 0.0683445 -0.0187778 
28 2 3.60717 4.20934 -3.43222 -0.000617559 -0.0173662 0.031601 
29 2 -1.55998 1.2564 -4.45675 -0.00861373 0.0359566 -0.0537361 
30 2 1.113 -4.70639 -1.23351 -0.00376041 -0.012095 -0.0433785 
31 2 0.0357381 -4.96573 2.59662 0.0059196 -0.00904373 0.0105439 
32 2 2.04134 4.77332 1.44138 -0.0433573 0.0348817 0.0562727 
33 2 1.76271 -3.6468 3.68646 0.0458812 -0.0143161 0.0332029 
34 2 -2.15341 4.79591 1.26277 -0.017635 -0.0158349 -0.00629769 
35 2 4.50617 -0.955151 4.40051 0.0125224 0.028627 -0.0329358 
36 2 -0.742647 1.67961 1.16215 -0.00103392 -0.00245635 0.0239591 
37 2 -0.881433 -2.39306 3.22729 0.0192272 -0.0195268 0.0457182 
38 2 -3.70015 3.65868 -4.30886 0.00984068 0.0303374 -0.020255 
39 2 0.0418984 -1.12309 -4.4117 0.0187121 0.0346474 -0.0111388 
40 2 -3.62272 -0.948976 3.12602 -0.0182289 -0.0545385 -0.0255955 
41 2 0.712425 -2.64153 0.922788 -0.0113008 0.0188294 -0.0165855 
42 2 0.567049 3.02984 -3.11121 -0.0120592 -0.0204246 0.00428392 
43 2 -1.31129 4.87627 -1.06808 0.0307585 -0.0105851 0.0130384 
44 2 2.11035 4.06662 4.51249 -0.00329162 0.00177023 0.00929498 
45 2 -0.921565 4.66728 4.88976 -0.0435472 -0.0238286 0.0292637 
46 2 -3.15903 -3.30912 -4.93619 8.58447e-05 0.00411914 -0.000820817 
47 2 -3.58345 -3.405 2.45213 0.0184253 0.00102406 0.0181819 
48 2 -2.70414 3.11062 3.26732 0.0360798 -0.00868662 -0.057026 
49 2 4.00641 -3.68568 5.2131 -0.0622731 -0.0120665 0.0114893 
50 2 -4.64891 1.83089 4.51483 -0.0228131 -0.0218712 -0.0228277 
ITEM: TIMESTEP
500
ITEM: NUMBER OF ATOMS
50
ITEM: BOX BOUNDS pp pp pp
-5 5
-5 5
-5 5
ITEM: ATOMS id type x y z vx vy vz 
1 1 -4.32683 -2.29594 3.77731 0.0144985 0.0112698 -0.0341037 
2 1 3.38137 -2.97617 3.81208 -0.0148544 0.0387781 -0.000513971 
3 1 -1.83301 -4.00684 -0.139348 -0.00671454 -0.0335136 0.00849841 
4 1 0.409233 -3.43224 2.52629 -0.0134573 0.00779217 -0.0040464 
5 1 -1.52397 -0.566107 -4.12737 -0.00589437 0.0262608 0.0514277 
6 1 -4.73584 0.0436001 3.51286 0.0256357 0.0111034 0.0385146 
7 1 3.04778 4.46477 2.96595 -0.000834391 -0.000101743 0.00748448 
8 1 -3.29426 5.25358 -4.25275 -0.00871529 0.0321965 0.000351843 
9 1 -2.22477 -1.86791 2.49099 0.0519403 0.000171716 -0.00351818 
10 1 3.84557 4.89771 -4.62334 -0.0281405 0.0118962 0.0482474 
11 1 1.10517 -4.04912 0.267104 -0.0372162 -0.0287636 0.0159288 
12 1 -4.23441 3.22317 3.74088 0.0236911 -0.00836093 -0.0419165 
13 1 0.0746065 0.24218 1.53672 0.00143122 -0.00268912 0.0154733 
14 1 -1.59419 1.80078 2.68356 0.0413983 -0.0332429 0.0238701 
15 1 -3.17917 1.98007 -4.30997 0.00446316 0.0171142 -0.00360034 
16 1 -3.8654 -4.5104 1.7611 -0.0116153 0.0175145 -0.0440239 
17 1 0.0726544 -1.43074 3.93617 0.0399601 0.00221704 0.0199987 
18 1 0.891999 3.94634 1.97906 -0.0315433 -0.03211 0.0125132 
19 1 -1.70055 -3.30165 4.47455 0.000727918 -0.0392839 0.00921538 
20 1 -1.89784 4.43905 2.86473 0.0630335 0.00418559 0.018576 
21 1 0.883442 -4.91014 4.26135 0.0269882 -0.0187391 -0.0335834 
22 1 -0.731136 2.98015 -4.29589 0.0209829 -0.0213764 0.0169115 
23 1 -1.69477 3.66352 0.231535 0.00424851 0.00533657 0.0500462 
24 1 2.34421 3.59168 -3.55669 -0.0448443 -0.0199407 0.0520646 
25 1 0.128593 4.23027 -2.03147 -0.0231993 -0.00403384 -0.01546 
26 2 5.08987 4.41788 2.56011 0.0228279 -0.00110863 -0.0695892 
27 2 -0.325276 0.536384 2.97502 0.0127158 -0.00742571 0.0215731 
28 2 3.67832 3.93816 -3.2251 0.0443084 -0.0183305 0.0151479 
29 2 -1.88395 1.66745 -4.91127 -0.0364654 0.0382415 -0.0255303 
30 2 1.34584 -4.58458 -1.42153 0.0292922 0.0167186 0.00237628 
31 2 -0.247008 -5.06101 2.87891 -0.0351444 -0.0146663 0.0279613 
32 2 2.18648 5.30467 1.76631 0.0269823 0.0436182 0.0118962 
33 2 1.93716 -3.62049 3.81346 -0.0299761 0.0193004 -0.0149873 
34 2 -2.49434 4.71304 1.04584 -0.0441659 0.0195586 -0.0290615 
35 2 4.41217 -1.04 4.08699 -0.0403076 -0.0646186 -0.0197662 
36 2 -0.913039 2.08844 1.06832 -0.0189179 0.0632085 -0.0330737 
37 2 -0.872092 -2.63885 3.66035 0.00527911 -0.0145424 0.00468466 
38 2 -3.70907 3.63106 -4.65107 -0.0171786 -0.0220637 -0.0433045 
39 2 0.0063618 -0.867288 -4.73135 -0.0325182 0.0186414 -0.0305476 
40 2 -3.63288 -1.2049 2.8465 0.0155297 0.0199738 -0.0279885 
41 2 0.574731 -2.6678 0.851112 -0.027749 -0.0219131 0.014092 
42 2 0.436728 3.14334 -3.19143 -0.0112353 0.0352678 -0.0162794 
43 2 -1.06865 4.61461 -0.929861 0.0182069 -0.0284498 0.0178427 
44 2 2.14885 4.02369 4.48975 0.016705 -0.0125208 -0.00669451 
45 2 -1.39465 4.61656 5.23754 -0.0415644 0.01096 0.0351418 
46 2 -3.34481 -3.36284 -4.82402 -0.0153868 -0.00101168 0.0143433 
47 2 -3.25425 -3.3338 2.75992 0.0509805 -0.00334481 0.030298 
48 2 -2.54154 2.98166 2.80734 -0.0139446 -0.00725765 -0.0248664 
49 2 3.72799 -3.73794 -4.88117 0.0150601 0.011824 -0.0189062 
50 2 -4.7159 1.52094 4.17541 0.014696 -0.0237399 -0.0431175 
