ITEM: TIMESTEP
1000
ITEM: NUMBER OF ATOMS
91
ITEM: BOX BOUNDS pp pp pp
0 100.0
0 100.0
0 100.0
ITEM: ATOMS id type x y z vx vy vz 
1 1 22.7471 36.2958 16.4299 -0.00848083 -0.0205616 -0.00938076 
2 1 25.1714 11.3877 47.5823 -0.00464033 0.0374974 -0.0275336 
3 1 9.82086 33.582 17.7704 0.0359174 -0.0242414 -0.000815727 
4 1 15.5829 45.6164 51.0462 0.00382965 0.045048 0.0409649 
5 1 11.2208 7.90361 35.5149 0.0209053 0.0274452 0.00291048 
6 1 7.7316 28.7307 3.67655 0.0163789 -0.011323 0.00612668 
7 1 6.40406 2.57189 27.5309 0.0152385 -0.0366422 0.0266587 
8 1 6.11752 21.311 23.6546 0.00197089 -0.00153125 0.0201777 
9 1 36.7953 1.28666 4.93679 0.00851894 0.00648655 0.0273097 
10 1 41.6941 30.436 49.739 0.000874076 0.0116291 0.00622157 
11 1 12.2622 28.5867 47.2967 -0.00613259 -0.014227 0.00825905 
12 1 37.8136 5.26182 13.7439 -0.00606811 0.00133644 0.0161663 
13 1 34.881 11.3105 38.5634 -0.0417985 0.0371285 -0.00125591 
14 1 24.8571 2.23146 21.3021 -0.022473 0.0179518 0.0171487 
15 1 47.079 13.4358 29.7245 0.0183345 -0.0108504 0.0109513 
16 1 17.4768 10.1181 47.9858 -0.0139499 -0.0224478 -0.00422779 
17 1 11.7583 37.8524 35.259 -0.0168544 0.0219297 -0.0125124 
18 1 32.7951 1.06106 7.85753 0.0251765 0.00422545 0.00398706 
19 1 1.12619 29.6751 3.85267 0.0258288 -0.0249831 0.0192179 
20 1 28.4007 47.4947 25.9598 0.00548575 -0.0330503 -0.00293703 
21 1 0.583936 17.9441 10.5448 0.00651189 -0.0186508 0.0011709 
22 1 7.87451 23.1052 22.3429 -0.0202598 0.00777485 0.00806192 
23 1 39.0936 51.1552 11.8141 0.0406523 -0.0169964 0.033174 
24 1 26.2944 0.717502 33.9231 -0.039303 0.00958285 0.00468282 
25 1 31.1554 21.2965 4.79346 -0.0137933 0.0408457 -0.00969503 
26 1 18.5364 36.0591 29.1205 0.0149242 0.0130953 -0.0155244 
27 1 12.5296 22.3044 41.5619 -0.0024538 0.0133827 -0.0147921 
28 1 3.34773 28.4754 7.90646 -0.0114399 -0.0121337 0.00592807 
29 1 51.0368 27.0758 4.77707 -0.0175196 -0.0283902 0.0330118 
30 1 1.6681 44.02 23.9757 0.0410215 -0.0157744 -6.61788e-05 
31 1 24.1132 49.2128 1.51543 0.0441896 -0.0254607 0.0468617 
32 1 0.861249 28.5997 36.0926 -0.00926596 0.0182525 0.0283157 
33 1 46.634 1.23354 14.2834 0.000418684 0.0334437 0.0167168 
34 1 16.4178 36.235 16.5305 -0.00838311 0.0336168 0.00182629 
35 1 40.5011 20.8996 8.75983 0.00882151 0.0450027 -0.0261804 
36 1 25.9953 24.0666 8.1772 -0.0145347 0.00998854 0.0154992 
37 1 28.0883 4.9778 28.4957 -0.0319301 0.0143248 -0.0282663 
38 1 36.8036 21.1098 38.3613 0.039445 -0.00377411 -0.01477 
39 1 18.7681 48.0799 18.5147 0.0128705 -0.015953 0.00631783 
40 1 26.4375 26.536 8.90878 -0.019398 0.0105747 -0.0230415 
41 1 41.7599 16.7467 30.5973 0.0454564 0.0510972 0.00689215 
42 1 10.1454 40.7639 37.1162 -0.0311728 -0.0510243 -0.0163512 
43 1 4.91266 51.4664 26.9694 -0.0288822 0.0125362 0.0397606 
44 1 12.6763 38.8284 16.2839 0.00156694 0.0338216 -0.0505615 
45 1 40.5029 45.2047 12.6756 0.00731813 0.0172653 -0.0403279 
46 1 40.7286 50.9409 17.4457 -0.0176245 0.0197304 0.00857617 
47 1 27.0169 2.86083 22.1247 0.0226553 -0.0232733 0.0518127 
48 1 25.1147 5.85453 29.6206 0.00065921 0.0121246 -0.0232201 
49 1 4.71865 31.0296 0.0105865 0.00460116 -0.0162642 0.0186457 
50 1 16.4472 32.7634 44.8319 -0.0118378 0.0143633 -0.00676939 
51 1 11.8538 26.7593 23.3138 0.00821366 -0.0133166 -0.0134085 
52 1 38.6497 21.6875 19.1122 -0.00897167 -0.0131223 0.0264221 
53 1 34.6547 19.3481 1.41695 0.00577814 0.00940392 0.0432113 
54 1 7.61558 3.61363 37.8105 -0.0061984 0.0185115 -0.00654812 
55 1 37.9959 33.0934 4.14872 0.0303211 -0.0461625 0.00579197 
56 1 30.4182 27.908 4.22389 -0.00146318 -0.0141241 0.0370368 
57 1 47.7158 28.2552 12.1984 -0.0245643 -0.00842614 -0.00894179 
58 1 28.8419 20.6675 42.2342 -0.00863339 -0.00641659 -0.00692953 
59 1 40.6622 28.4739 32.7142 0.0311076 0.00342508 0.0255253 
60 1 1.86159 38.6481 13.2592 0.00158809 -0.0136676 -0.00193538 
61 1 6.76964 25.4887 22.8084 -0.0314184 0.0217475 -0.00643721 
62 1 3.84505 22.7496 24.6396 -0.0376301 -0.0061455 -0.00859932 
63 1 24.0898 13.9538 23.3043 0.0120978 0.0252445 0.0125978 
64 1 2.04826 31.9605 29.8238 0.0387265 -0.0242372 0.00560722 
65 1 34.2744 49.0559 43.8823 -0.0265367 0.00689319 -0.0141855 
66 1 8.06999 48.2937 24.926 0.0154004 -0.0291674 -0.0341409 
67 1 42.2749 4.69382 51.1637 0.00506874 0.0107072 0.00389078 
68 1 44.708 4.79188 50.2468 0.0298882 0.0111627 -0.0172242 
69 1 51.4819 25.9492 34.684 -0.00832044 0.0203344 0.00676272 
70 1 29.5835 31.9555 2.77995 -0.0338499 0.0505831 -0.0237298 
71 1 35.7147 42.3458 11.5924 0.0262698 -0.0063351 -0.0053209 
72 1 48.3757 20.9963 49.859 -0.0182248 -0.00932768 0.0145249 
73 1 50.7072 45.2306 23.3031 -0.00308793 -0.0398613 -0.0143821 
74 1 25.7625 27.8083 22.815 -0.0264292 0.00415186 0.0172574 
75 1 26.7466 42.6128 39.7458 0.0344677 -0.00537971 -0.0118159 
76 1 45.1407 34.0654 16.4555 -0.0246666 -0.0148848 -0.0224008 
77 1 20.5901 39.9577 29.1757 0.012971 0.0227211 -0.00351971 
78 1 30.6889 23.7055 37.7711 0.00142797 0.0154074 -0.00957115 
79 1 36.2759 22.1547 17.4287 -0.0335628 0.022564 -0.0373145 
80 1 5.22353 28.0531 27.3766 0.0130028 -0.00278024 0.0110927 
81 1 0.238803 0.264885 29.0596 -0.00544979 0.00344835 -0.0295725 
82 1 47.0399 34.5718 39.3799 0.0218561 0.00834117 -0.0583812 
83 1 21.0301 22.4669 40.676 -0.0325357 0.00898318 -0.0147657 
84 1 49.5078 38.6022 50.2412 0.0171412 -0.04173 0.0419606 
85 1 36.4288 40.0806 12.3699 0.0112669 0.0219301 -0.0231295 
86 1 28.4045 44.9831 41.0496 0.00894615 -0.00150972 -0.0119641 
87 1 13.9267 33.1477 18.7794 0.0141249 -0.0097921 -0.0275298 
88 1 6.29643 45.748 38.0444 0.0385009 0.00691377 -0.00478735 
89 1 4.6493 39.0448 40.5116 -0.000125782 -0.010835 0.0336079 
90 1 42.5455 37.1745 25.1386 0.00223312 -0.0060234 0.0334996 
91 1 7.8815 32.0892 30.0133 -0.0462949 -0.00831509 0.0146938 
