ITEM: TIMESTEP
100
ITEM: NUMBER OF ATOMS
50
ITEM: BOX BOUNDS pp pp pp
-5 5
-5 5
-5 5
ITEM: ATOMS id type x y z vx vy vz 
1 1 2.59552 3.41596 0.153647 -0.0532705 -0.0284201 0.0167817 
2 1 -3.02157 1.67506 1.27605 0.0172016 0.00640985 0.0419052 
3 1 0.716549 1.38716 4.47631 0.0300688 -0.0441517 0.0271468 
4 1 -2.50459 -3.77969 -0.862732 0.0387138 0.0214246 0.0129373 
5 1 -0.575361 1.00124 0.926641 0.00261894 0.00300212 0.0104761 
6 1 -4.66449 2.39875 -0.482892 0.00489342 0.00646177 0.011757 
7 1 -2.26436 4.05076 0.349154 0.00106049 0.0333919 0.00741127 
8 1 -1.60774 4.31212 -2.24 0.0169241 -0.0123352 0.0237028 
9 1 -3.95497 2.56751 -3.51554 0.0415626 0.0108111 0.00856032 
10 1 0.391674 2.96287 2.23638 -0.00648352 -0.0237953 -0.0536709 
11 1 3.53402 1.86006 2.74651 -0.0218417 0.0291538 -0.00758662 
12 1 -2.51213 -1.02889 0.0701672 -0.0217509 0.0109252 -0.00720602 
13 1 -4.75406 0.0833554 2.53265 0.0136018 0.0185044 0.00821039 
14 1 -1.43172 -0.264386 3.06575 0.0239502 0.00335196 -0.0276368 
15 1 1.74632 1.34694 -0.719141 0.0110835 -0.00765058 -0.0110042 
16 1 -4.78855 3.79441 2.07682 -0.0226056 0.01553 0.0132438 
17 1 1.85004 -0.0189549 1.99354 0.0132342 -0.0171619 -0.0425566 
18 1 -4.73801 4.55859 -1.38684 -0.00665885 -0.0567858 0.0212228 
19 1 0.317723 3.58356 -4.50534 -0.0206421 -0.0230574 -0.00774783 
20 1 0.263052 3.14033 -1.88198 0.0147432 0.0271481 -0.00316165 
21 1 -2.27945 1.75489 -1.19143 -0.00823514 -0.00699352 -0.00167422 
22 1 -2.08607 2.49032 3.46978 -0.0156472 -0.0270425 0.00468724 
23 1 4.27174 0.0912302 0.406944 -0.00950249 -0.0261374 -0.0443373 
24 1 2.75953 2.25596 -3.21423 0.0118748 -0.0240121 -0.00512316 
25 1 -1.47557 1.9025 -4.16685 0.0399458 0.0176566 -0.00327248 
26 2 -2.84418 2.77013 -4.58181 -0.0450137 0.0362694 -0.00607926 
27 2 -1.01292 1.0614 4.54598 -0.023056 0.00830582 -0.00471079 
28 2 2.64944 3.53382 2.06746 0.00387482 -0.0365073 -0.0121373 
29 2 -3.2371 2.68366 -0.911799 0.0182175 0.0141902 -0.00591149 
30 2 -3.47317 4.82419 -2.10718 0.0221423 0.0333963 -0.0116198 
31 2 4.10403 3.57632 -0.369911 0.0265938 -0.0085062 0.0463405 
32 2 -3.13052 -0.133515 2.44715 0.0477018 0.0363491 0.00949109 
33 2 -0.933002 1.79087 -2.26999 -0.0155589 -0.0228998 -0.0377337 
34 2 -0.0967388 -0.555256 1.93772 0.00647876 -0.0269368 -0.0109642 
35 2 -2.96392 -2.29194 -0.203711 -0.00454819 0.0266645 0.0138797 
36 2 -0.39329 4.29829 -3.18945 0.0205189 -0.00726121 0.0297206 
37 2 1.51706 2.42613 -4.37748 0.0162138 -0.059598 -0.0232768 
38 2 -1.73234 0.287598 -0.300735 0.000270397 0.0194708 0.0229165 
39 2 -1.75357 2.20128 2.05556 -0.00902442 0.0358841 -0.0158216 
40 2 4.57786 2.78135 -3.02625 0.00528658 0.00733171 0.0053124 
41 2 1.68028 0.920737 3.36601 -0.0314966 -0.0162442 0.0184751 
42 2 0.339046 2.15401 0.617576 -0.0188836 0.018331 0.000435638 
43 2 -4.57295 2.28394 2.50579 0.023992 -0.00903868 0.00803472 
44 2 1.91519 2.66788 -1.66815 -0.0227016 0.0610647 -0.00926876 
45 2 -0.0812679 3.37484 4.02873 -0.0201617 -0.026463 -0.0325118 
46 2 3.84724 0.247764 1.95515 -0.0155256 -0.0154069 0.0365723 
47 2 -3.49192 4.68591 0.870342 0.0128253 0.0436065 -0.0164615 
48 2 -4.15029 0.697499 0.157166 -0.0121451 -0.0295885 -0.0227177 
49 2 -1.02649 4.33188 -0.790927 -0.0223943 -0.0190586 0.0294919 
50 2 2.97153 0.327555 -0.629134 -0.0584455 0.030417 -0.00452084 
ITEM: TIMESTEP
200
ITEM: NUMBER OF ATOMS
50
ITEM: BOX BOUNDS pp pp pp
-5 5
-5 5
-5 5
ITEM: ATOMS id type x y z vx vy vz 
1 1 2.3001 3.29677 0.3719 -0.00539417 -0.00250384 0.016094 
2 1 -3.10584 1.50764 1.58774 -0.00711567 -0.00474268 0.009608 
3 1 0.932268 0.973713 4.64288 0.0114148 -0.0400907 -0.00601126 
4 1 -2.39865 -3.54286 -0.695798 -0.0140029 0.00124228 0.0121249 
5 1 -0.615016 0.886821 0.904897 0.0146439 -0.0062544 -0.00359469 
6 1 -4.72118 2.11271 -0.288853 -0.00117141 -0.0607973 0.0308487 
7 1 -2.23379 4.04657 0.491863 -0.0169024 -0.0363993 0.0338341 
8 1 -1.85903 4.25323 -2.15862 -0.0479171 -0.00190357 0.00219122 
9 1 -3.83777 2.85594 -3.34059 -0.0116147 0.0388805 0.0155777 
10 1 0.287732 2.82553 2.00149 -0.0249725 -0.0033254 0.0179988 
11 1 3.19108 2.06719 2.6643 -0.0319459 -0.0228335 0.00385975 
12 1 -2.80967 -0.56986 0.127799 -0.0470974 0.039323 0.0124058 
13 1 -4.43185 0.328689 2.6556 0.0157002 0.0262008 0.0163763 
14 1 -1.19692 -0.181342 2.88009 0.0275014 0.0103959 0.0037306 
15 1 1.50592 1.403 -0.959894 -0.0551438 0.020996 -0.0283533 
16 1 -4.90081 3.94517 1.94809 0.00342132 0.00494702 -0.0449169 
17 1 1.88613 -0.151774 1.84475 -0.00190165 -0.00253836 0.0104899 
18 1 -4.70373 4.14265 -1.25435 0.0245702 -0.0126459 0.00852714 
19 1 0.323974 3.58789 -4.68844 0.0181966 0.0152763 -0.0311239 
20 1 0.346799 3.34869 -1.81224 -0.0151181 0.0256418 0.0150424 
21 1 -1.95282 1.4015 -1.30116 0.045386 -0.0205601 -0.0168051 
22 1 -2.12813 2.29735 3.76848 0.0112131 -0.00794572 0.0325756 
23 1 4.11678 -0.0914901 -0.128077 -0.0244938 -0.0110373 -0.0448725 
24 1 2.93618 2.26554 -3.21247 0.0214435 0.0238917 0.00256532 
25 1 -1.25378 1.90217 -4.05615 -0.000501348 -0.0186326 -0.00598628 
26 2 -2.93342 2.95582 -4.72555 0.0222774 0.000591213 -0.015305 
27 2 -1.20172 1.06097 4.44148 -0.0109984 -0.0110528 -0.00530407 
28 2 2.6742 2.96181 1.78638 -0.0133987 -0.0455841 -0.0422921 
29 2 -3.22774 2.92775 -0.894164 -0.0140888 0.00601974 -0.00602772 
30 2 -3.0707 5.2585 -2.08318 0.0458757 0.0430138 0.0144623 
31 2 4.4293 3.4382 0.108403 0.0310698 -0.0167564 0.0417448 
32 2 -2.65998 0.279821 2.50243 0.0282904 0.0406927 -0.00555944 
33 2 -1.17653 1.84069 -2.73394 -0.0329956 0.0161146 -0.0131256 
34 2 -0.0464912 -0.504637 1.79974 0.00497748 0.0304714 -0.0211017 
35 2 -2.94563 -2.35227 -0.212431 0.00996849 0.0182708 -0.00161853 
36 2 -0.171314 4.01434 -3.07541 0.00997045 -0.036365 -0.0155428 
37 2 1.65472 1.90994 -4.3238 0.0124764 -0.0335852 0.0333165 
38 2 -1.70497 0.627547 0.0472086 -0.0148428 0.0330495 0.0241971 
39 2 -1.76661 2.54988 1.76444 -0.00399002 0.0313025 -0.0345598 
40 2 4.598 2.74576 -2.89815 0.0018164 -0.00934282 0.0247931 
41 2 1.52167 0.758126 3.14708 -0.00959 -0.0100548 -0.0451793 
42 2 0.586079 2.2292 0.539818 0.0573464 -0.0143201 -0.0260448 
43 2 -4.4167 2.22877 2.43544 0.00888163 -0.00398927 -0.0206187 
44 2 1.77655 3.05661 -1.58258 0.018766 0.00422814 0.0297769 
45 2 -0.29369 3.09269 3.64041 -0.00805611 -0.0186855 -0.0252097 
46 2 3.63196 0.167001 2.17701 -0.00810254 -0.00234452 0.00527495 
47 2 -3.53542 5.03324 0.817057 -0.0120648 0.0224031 0.00601123 
48 2 -4.4259 0.55483 0.0411635 -0.0267111 -0.00629671 -0.00111762 
49 2 -1.17786 4.26514 -0.560945 0.0133118 0.0100436 -0.00348619 
50 2 2.69979 0.476853 -0.409659 0.00161215 -0.00240865 0.0403297 
ITEM: TIMESTEP
300
ITEM: NUMBER OF ATOMS
50
ITEM: BOX BOUNDS pp pp pp
-5 5
-5 5
-5 5
ITEM: ATOMS id type x y z vx vy vz 
1 1 2.33507 3.17213 0.149709 0.014671 -0.0307293 -0.0322654 
2 1 -2.81099 1.79844 1.44238 0.0438263 0.0113698 -0.0187617 
3 1 1.048 0.752055 4.48352 0.00990051 0.00315121 -0.00196277 
4 1 -2.70221 -3.72664 -0.563767 -0.0411851 -0.00430145 0.0318592 
5 1 -0.309607 0.957831 0.808824 0.0192651 0.0158081 -0.0317649 
6 1 -4.7763 1.85675 -0.0452161 -0.0125687 0.004306 0.0118941 
7 1 -2.40598 3.72188 0.648188 -0.0105081 0.0185284 -0.0326483 
8 1 -2.09577 4.12723 -2.06546 0.00077867 -0.0217034 0.0136633 
9 1 -3.95998 3.07305 -3.43321 -0.00874571 -0.00396571 -0.0290595 
10 1 0.0136407 2.78693 2.21148 -0.0137734 -0.00172103 0.00783372 
11 1 2.944 1.48141 2.69047 -0.0207907 -0.0495138 -0.0149406 
12 1 -3.28261 -0.455617 0.2395 -0.0264593 -0.00886148 0.011698 
13 1 -4.60662 0.554727 2.84034 -0.0301218 0.0269183 0.00255436 
14 1 -0.996018 -0.0216536 3.08814 0.00399093 0.0203249 0.019916 
15 1 1.2664 1.46698 -1.02443 0.0186602 -0.0134426 -0.000987546 
16 1 -4.75127 3.88882 1.36769 0.0256185 0.00208441 -0.0192192 
17 1 1.88027 -0.116921 1.80686 -0.00604856 0.00145607 -0.0326778 
18 1 -4.4078 4.09158 -0.953221 0.0201027 -0.00240716 0.0418482 
19 1 0.46088 3.66924 -4.96871 0.00342236 -0.00432181 -0.0188328 
20 1 0.146244 3.75739 -1.61199 -0.00988219 0.0478225 0.012661 
21 1 -1.7119 1.40461 -1.29079 -0.0117009 0.0022167 0.0427779 
22 1 -1.99931 2.38167 3.80014 0.00848337 0.0222399 -0.0249763 
23 1 3.86135 -0.213694 -0.353981 -0.0229012 -0.0113267 -0.000763343 
24 1 3.07497 2.5715 -3.09165 -0.000887353 0.027101 0.0267767 
25 1 -1.33739 1.70252 -4.19229 -0.00991292 -0.0115704 0.024433 
26 2 -2.65998 2.83186 -4.70646 0.0231386 -0.0228177 0.0143889 
27 2 -1.08484 0.793143 4.48784 0.0354569 -0.035537 0.0065044 
28 2 2.53311 2.77283 1.76829 -0.00447105 2.51433e-05 0.0391945 
29 2 -3.41313 2.91818 -1.09166 -0.00613583 0.00608025 -0.0229338 
30 2 -2.79604 -4.35838 -1.89577 0.00646584 0.0184927 0.015059 
31 2 4.72173 3.29252 0.269909 0.00958968 -0.0194741 -0.0361083 
32 2 -2.63438 0.478345 2.46655 -0.0117424 0.00570664 0.00608021 
33 2 -1.49716 1.97625 -2.54854 -0.0194945 0.0219306 -0.0103053 
34 2 0.00615591 -0.229921 1.59671 0.00763131 0.009552 -0.00476039 
35 2 -2.82492 -1.81864 -0.178001 0.0140855 0.0480913 0.0022522 
36 2 -0.137068 3.76206 -3.50135 0.00735766 -0.0130861 -0.0500246 
37 2 1.76906 1.65919 -4.01963 0.0137024 -0.0202561 0.017847 
38 2 -2.06388 0.843445 0.0195416 -0.0341084 0.0186174 -0.0108741 
39 2 -1.74047 2.83514 1.49963 0.0346431 0.0125838 0.00798329 
40 2 4.65182 2.7348 -2.6324 0.00710848 0.0113496 0.0169632 
41 2 1.38865 0.920563 3.05297 -0.00874888 0.0318582 0.0218936 
42 2 0.777474 1.97058 0.287034 -0.048192 -0.0246386 -0.0102899 
43 2 -4.35176 2.16506 2.19069 0.0110895 -0.00541804 -0.0270169 
44 2 2.03059 2.96527 -1.34553 0.01975 -0.00435922 -0.00184372 
45 2 -0.20196 3.04861 3.69728 0.0131837 0.00552456 0.0362594 
46 2 3.76718 0.171176 2.27163 0.0240392 0.00138114 0.0232948 
47 2 -3.59965 -4.97928 0.878513 0.00289348 -0.0260148 -0.00691901 
48 2 -4.56382 0.25131 0.101468 -0.0246495 -0.0434424 0.00368876 
49 2 -0.966766 4.34027 -0.74168 0.0166012 -0.00439392 -0.0270753 
50 2 2.50849 0.461372 -0.168084 -0.0324276 -0.0112177 0.00768671 
ITEM: TIMESTEP
400
ITEM: NUMBER OF ATOMS
50
ITEM: BOX BOUNDS pp pp pp
-5 5
-5 5
-5 5
ITEM: ATOMS id type x y z vx vy vz 
1 1 2.6697 2.85176 0.260821 0.0467723 -0.0183005 0.0368514 
2 1 -2.56484 1.56715 1.45571 0.00583435 -0.00154289 0.0337592 
3 1 1.03213 1.00718 4.83237 -0.0102211 0.0370819 0.0472039 
4 1 -3.08096 -3.4688 -0.181642 -0.0302766 0.0427088 0.0240713 
5 1 -0.53688 0.749153 0.598797 -0.0497415 -0.0450334 -0.0132704 
6 1 -4.82179 1.6954 -0.0298998 0.00811599 -0.0166459 -0.00387036 
7 1 -2.05836 4.10049 0.185678 0.0743085 0.0232227 -0.0325635 
8 1 -2.09115 3.90978 -2.09363 -0.00105594 -0.0130821 -0.02704 
9 1 -3.96556 2.82422 -3.68262 0.00394894 -0.0384534 -0.0155021 
10 1 0.184449 2.8093 2.21193 0.0497585 0.000405584 -0.00566206 
11 1 2.80577 1.5299 2.56159 -0.0108233 0.0302305 0.000157911 
12 1 -3.3181 -0.496681 0.423244 0.00378909 -0.00639627 0.014333 
13 1 -4.68246 0.874694 2.62197 0.0179531 0.0313912 -0.0347631 
14 1 -1.07142 0.116863 3.06308 -0.00721808 0.00703269 -0.00831119 
15 1 1.603 1.22864 -1.17374 0.0201287 -0.018961 -0.0247941 
16 1 -4.61794 3.84964 1.7114 0.00726467 -0.0221103 0.0462083 
17 1 1.54977 -0.192705 1.30189 -0.0491149 -0.0127079 -0.0452735 
18 1 -4.43771 4.13938 -0.906529 -0.0141131 0.00398067 -0.0285112 
19 1 0.533992 3.56836 -4.99041 0.0171616 -0.011155 0.00740244 
20 1 0.454821 4.00307 -1.75767 0.0515848 -0.0023489 -0.0308143 
21 1 -2.03237 1.70121 -1.23676 -0.0519368 0.0505799 -0.00978896 
22 1 -1.93727 2.67577 3.65516 0.007744 0.0357336 0.00206439 
23 1 3.64343 -0.337559 -0.233849 -0.0331844 -0.023781 0.0169372 
24 1 2.96088 2.72991 -2.72145 -0.00486482 0.00655225 0.0284433 
25 1 -1.37899 1.71881 -3.91372 0.00506333 0.00979773 0.00350038 
26 2 -2.65496 2.56495 -4.69595 -0.021698 -0.0274474 -0.0163373 
27 2 -0.598583 0.544834 4.68707 0.0527427 -0.0138704 0.0339618 
28 2 2.53937 2.87908 1.96419 0.0045251 0.0223285 -0.0143286 
29 2 -3.09261 3.08522 -1.1586 0.0463215 0.0163794 0.0106445 
30 2 -2.90752 -4.47467 -1.70931 -0.0304036 -0.0279348 0.0290867 
31 2 4.42551 3.22055 -0.135354 -0.0609951 -0.00262502 -0.0172141 
32 2 -2.67975 0.508268 2.64408 0.0051849 -0.00153846 0.0272776 
33 2 -1.5837 2.12141 -2.48553 0.00574848 0.00704181 0.0213157 
34 2 0.0633206 -0.235319 1.69845 -0.00914964 -0.00302125 0.0128927 
35 2 -2.65676 -1.85811 -0.196323 0.0100606 -0.0410371 0.00345429 
36 2 0.00721815 3.81225 -3.65065 0.0186322 0.0214494 0.033575 
37 2 1.95516 1.50935 -3.93716 0.0195762 -0.00639341 0.00538779 
38 2 -2.35142 0.926316 0.200577 -0.0178602 -0.0124642 0.0138586 
39 2 -1.33056 2.90378 1.79922 0.0138186 -0.00309116 0.0377457 
40 2 4.66094 2.93649 -2.75721 -0.000790189 0.0243957 -0.0413653 
41 2 1.42568 1.08162 3.16617 0.00973059 0.00305795 0.00735819 
42 2 0.288035 2.09936 0.0645347 -0.0256543 0.0259411 -0.0402794 
43 2 -4.17497 2.26486 1.80736 0.0161406 0.0220134 -0.0488831 
44 2 2.09132 2.92715 -1.56842 -0.0123661 -0.00849196 -0.0128798 
45 2 -0.268846 3.03654 3.82104 -0.0244578 -0.0100994 -0.0165603 
46 2 3.88298 0.189718 2.56158 -0.00113961 0.0126838 0.0267612 
47 2 -3.51385 -5.26627 0.577216 0.00103401 -0.0159254 -0.0348323 
48 2 -5.03809 0.0687025 0.0289609 -0.0274148 0.00573174 -0.00954763 
49 2 -1.04622 4.22934 -0.874105 -0.00258271 -0.0137464 -0.00712684 
50 2 2.2117 0.257607 -0.0720622 -0.0258809 -0.0215357 0.0152672 
ITEM: TIMESTEP
500
ITEM: NUMBER OF ATOMS
50
ITEM: BOX BOUNDS pp pp pp
-5 5
-5 5
-5 5
ITEM: ATOMS id type x y z vx vy vz 
1 1 2.94143 2.85736 0.445035 -0.013397 0.00797761 -0.00835441 
2 1 -2.51952 1.95222 1.78223 -0.000210097 0.0296536 0.00727989 
3 1 1.07235 1.16648 5.04785 0.0296661 -0.00869991 -0.00203388 
4 1 -3.34525 -3.48472 -0.195577 -0.0251595 -0.0564786 -0.0231078 
5 1 -0.959875 0.529532 0.297228 -0.0231901 -0.00185717 -0.0357626 
6 1 -4.68181 1.79233 -0.0897159 0.0115679 0.0266932 -0.00698248 
7 1 -1.66509 4.16193 0.229253 0.0132733 -0.00761996 0.0118575 
8 1 -1.92727 4.05746 -2.40475 0.0366696 0.0303634 -0.015719 
9 1 -4.02361 2.43187 -3.8165 -0.0138776 -0.0358929 -0.01635 
10 1 0.634923 2.69836 2.12454 0.0250876 -0.0225699 -0.00606588 
11 1 2.78336 1.61612 2.76412 0.0150353 -0.00643205 0.0313946 
12 1 -3.28193 -0.688797 0.390613 -0.000156236 -0.0205458 -0.0151985 
13 1 -4.54551 0.969552 2.39788 0.00464357 -0.0184311 -0.00709978 
14 1 -0.96389 0.169506 3.23209 0.0201011 0.00940828 0.0354245 
15 1 1.47715 1.26891 -1.35902 -0.0409678 0.0231021 -0.00177234 
16 1 -4.46003 3.7469 1.82622 0.0222455 0.0140946 -0.0256319 
17 1 1.12046 -0.313825 1.24295 -0.0371388 -0.00500617 0.0244643 
18 1 -4.39955 4.14291 -1.13559 0.0210181 0.00350451 -0.00974226 
19 1 0.603829 3.55554 -4.85644 -0.00155255 0.0166056 0.0265639 
20 1 0.739645 3.70094 -1.96225 -0.000288788 -0.0474438 0.00449144 
21 1 -2.43321 1.87573 -1.01448 0.00232744 -0.0272042 0.0206486 
22 1 -1.82323 3.04309 3.74462 0.0139093 0.0331697 0.0144576 
23 1 3.42936 -0.63395 -0.027593 0.00720125 -0.0169573 0.0237751 
24 1 3.21591 2.74577 -2.76331 0.0372793 -0.00342242 -0.0193334 
25 1 -1.29485 1.75799 -4.09012 0.00589218 -0.0105629 -0.0302505 
26 2 -2.84307 2.34573 -4.90627 -0.00548388 -0.0108491 -0.0220339 
27 2 -0.327595 0.520252 5.10532 -0.00602432 0.00860189 0.0450612 
28 2 2.47424 3.10345 1.79801 -0.0285154 0.00946527 0.0114306 
29 2 -3.16397 3.13437 -1.01772 -0.0492785 0.00449765 0.00702916 
30 2 -3.36222 -4.63874 -1.5787 -0.0512924 0.00153375 -0.0118221 
31 2 4.11974 3.08493 -0.332312 0.0356823 -0.0175946 -0.0447088 
32 2 -2.64705 0.533473 2.86449 -0.00290874 0.0134261 0.0114369 
33 2 -1.44089 2.08454 -2.60363 0.000145357 -0.0105193 -0.0224595 
34 2 -0.367217 -0.212754 1.72548 -0.0605728 0.00906063 -0.00769761 
35 2 -2.69186 -2.05834 0.0289982 -0.0144958 0.00316495 0.0371945 
36 2 0.287772 4.03783 -3.34661 0.0347248 0.0194066 -0.0144447 
37 2 2.12327 1.63644 -3.7725 0.0130762 0.0317891 0.0250665 
38 2 -2.44548 0.694957 0.147311 -0.0115719 -0.0168138 -0.0138643 
39 2 -1.49194 2.77073 2.00425 -0.0172578 0.00155958 0.00397761 
40 2 4.71741 3.15103 -3.21416 0.0103916 0.015183 -0.0393956 
41 2 1.43378 1.21589 3.28238 -0.0162572 0.0242725 0.0124548 
42 2 0.0975574 1.89571 -0.181838 -0.0240103 -0.066504 -0.000900664 
43 2 -4.11038 2.26492 1.4102 -0.00312645 -0.0224265 -0.0217875 
44 2 1.89389 2.80013 -1.52565 0.00341414 -0.0185092 -4.9174e-05 
45 2 -0.232996 3.00655 3.99367 0.0340347 0.00583755 0.0538545 
46 2 3.98113 0.60053 2.69691 0.0227324 0.0650796 0.000480885 
47 2 -3.64257 4.76218 0.658361 -0.021041 0.0191975 0.0570604 
48 2 4.97232 0.201704 -0.0159477 0.00762524 0.00642411 -0.000130078 
49 2 -0.547124 4.30673 -1.22015 0.0535547 0.0305882 -0.0317189 
50 2 2.015 0.126547 -0.0676744 -0.013524 -0.0113199 -0.0109867 
