ITEM: TIMESTEP
100
ITEM: NUMBER OF ATOMS
50
ITEM: BOX BOUNDS pp pp pp
-5 5
-5 5
-5 5
ITEM: ATOMS id type x y z vx vy vz 
1 1 -0.956092 -1.13941 1.31793 0.00352148 -0.0110807 -0.0333194 
2 1 -4.7956 -2.87657 4.03538 -0.0344822 -0.0103107 0.000988839 
3 1 -3.22547 -2.91072 1.3096 0.0455309 -0.0364283 -0.0209076 
4 1 -1.15309 -0.942739 4.10637 -0.03013 0.0141248 -0.012369 
5 1 -2.66386 -3.1395 4.18879 0.00791677 0.0525371 -0.0039651 
6 1 3.9722 -0.537489 3.55383 0.0276584 -0.00198692 -0.0163307 
7 1 -2.833 4.30764 -4.45912 -0.00154234 0.0379413 0.0102566 
8 1 0.238114 4.61648 4.96068 -0.0128775 -0.013989 0.0376962 
9 1 -1.87707 4.23087 3.22503 0.0579662 0.00307141 0.0314414 
10 1 -4.87003 2.82109 4.39565 -0.0079329 -0.0396578 0.018897 
11 1 -4.62759 -4.89275 2.3493 -0.000939285 0.0118495 0.0313113 
12 1 -3.29853 -0.163041 3.18577 -0.0358933 0.0145489 -0.00660587 
13 1 -0.605357 1.27065 3.09927 0.00385189 -0.0283689 -0.0064295 
14 1 -4.40923 2.49565 1.12928 0.00688813 0.024803 -0.00457204 
15 1 -2.80339 1.46039 -5.06875 -0.0171244 -0.0219822 -0.0021289 
16 1 -4.67414 -4.32275 -4.05421 -0.00771947 0.030341 0.0245002 
17 1 1.43763 -0.835521 2.85983 0.00423413 0.00650959 -0.0320653 
18 1 1.09961 -3.45587 3.03789 0.022683 -0.0261492 0.0287924 
19 1 1.73997 -2.34369 -5.04098 -0.0270486 0.0194819 -0.038868 
20 1 -4.99017 4.96792 -0.911366 -0.000315227 0.0118256 -0.0137772 
21 1 0.142191 3.58398 1.7188 -0.0582668 0.0520585 0.0761013 
22 1 -2.88615 3.34715 -2.16405 0.0527578 0.0188848 0.0136885 
23 1 -2.97615 4.71109 0.518184 0.0382655 -0.0149314 -0.0409523 
24 1 3.08819 -4.96864 4.54504 0.00768818 -0.0212616 0.00686474 
25 1 -2.608 -2.77023 -1.02536 0.00184089 0.00096891 -0.0329969 
26 2 -2.26856 -2.155 0.491077 0.0144708 -0.00267794 0.0274572 
27 2 -0.795408 3.00831 3.62444 0.00980944 0.00459785 -0.03708 
28 2 -2.25349 2.95712 -3.67338 -0.010604 0.00817648 0.00288835 
29 2 -2.62115 0.0432502 4.71765 -0.0272121 -0.00929646 0.0186282 
30 2 -1.88576 3.96469 1.60568 0.0120001 -0.0454773 -0.0300799 
31 2 1.82193 4.54223 -4.47736 0.0401513 0.00252341 -0.0361203 
32 2 0.0279214 0.439863 2.02375 -0.0123313 0.00595503 0.0194397 
33 2 2.61519 -1.08455 4.54139 -0.0397302 -0.0161549 -0.0157867 
34 2 -5.37995 4.02638 1.55559 -0.00785095 0.0300553 -0.0182548 
35 2 -4.45633 -1.46264 3.46102 0.0355456 0.00127986 0.0393371 
36 2 0.718222 -2.49741 2.1625 -0.0263985 0.0212792 0.00377407 
37 2 0.685243 4.89663 1.98447 0.00980578 -0.00798968 0.0299271 
38 2 5.12823 1.27437 4.29943 0.0383252 0.0189415 -0.0395909 
39 2 -4.11564 -3.08008 -4.69682 -0.044052 -0.0115697 -0.0357482 
40 2 -1.80802 -1.56948 2.54586 -0.0389418 0.031724 -0.0334039 
41 2 0.285912 -1.60901 4.42723 0.0595621 -0.0207654 -0.00812495 
42 2 2.32133 -3.83568 3.78719 -0.0243511 -0.00437981 0.000835485 
43 2 -1.69989 -4.69834 4.71482 -0.0158968 -0.018848 0.0614189 
44 2 4.54952 -4.94885 4.68385 -0.00466276 -0.0469686 0.017127 
45 2 -3.53639 -3.8833 -0.197409 0.00281378 -0.0759945 0.0219175 
46 2 -3.55365 -3.66791 2.8995 -0.0184421 0.00723597 -0.00710779 
47 2 -3.5072 3.67616 4.23622 -0.0141437 0.0338294 -0.0303831 
48 2 -3.78147 1.13465 1.98544 0.00595119 -0.015273 0.0243462 
49 2 -3.3164 5.1999 -3.01806 -0.00750794 0.0170885 0.0188156 
50 2 -4.14362 3.3027 -0.75539 0.0171587 0.0199095 -0.00948233 
ITEM: TIMESTEP
200
ITEM: NUMBER OF ATOMS
50
ITEM: BOX BOUNDS pp pp pp
-5 5
-5 5
-5 5
ITEM: ATOMS id type x y z vx vy vz 
1 1 -0.946556 -1.37701 1.21425 0.00151411 -0.0239174 0.0200378 
2 1 -5.28688 -2.85969 3.79498 -0.043854 0.0137889 -0.024558 
3 1 -2.85058 -3.15458 1.48245 0.0267931 -0.016136 0.0266264 
4 1 -1.29511 -0.993948 3.98849 0.0115425 -0.00231717 -0.0115807 
5 1 -2.70134 -2.82273 4.11962 -0.0393322 0.0141792 -0.00719009 
6 1 4.30758 -0.445698 3.72201 0.00508588 0.0291905 0.0486852 
7 1 -2.81873 4.59097 -4.34389 -0.0120092 0.0129576 0.0198965 
8 1 0.16884 4.43241 5.34801 0.00511265 -0.0155006 0.0375493 
9 1 -1.85666 4.22552 3.67887 -0.0714696 -0.00445001 0.0670201 
10 1 -4.92844 2.8775 4.42958 -0.00336873 0.0494007 -0.0115507 
11 1 -4.63932 -5.05006 2.87749 0.0100352 -0.052217 0.0547065 
12 1 -3.69669 -0.0699613 2.98777 -0.000932535 0.0119375 -0.0224029 
13 1 -0.668791 1.45675 3.0598 -0.0136547 0.0335109 -0.0103885 
14 1 -4.3042 2.71309 1.16525 0.0175462 0.0229946 0.0135326 
15 1 -3.03147 1.54324 5.10033 -0.0182466 0.00818438 0.0249383 
16 1 -4.71012 -4.17411 -3.70428 -0.0059978 0.00501199 0.0294929 
17 1 1.16405 -0.907328 2.64754 -0.0431343 -0.0067104 -0.00184678 
18 1 1.00144 -3.85546 2.78291 -0.0127261 0.00118766 -0.0449092 
19 1 1.7239 -2.20389 4.75484 0.0286758 0.00387214 -0.0132181 
20 1 -4.72177 4.92018 -0.913604 0.0555814 -0.0216796 0.0189698 
21 1 -0.463172 3.91808 2.2122 -0.0234897 0.0193502 -0.0130734 
22 1 -2.58816 3.58167 -2.11098 -0.00156871 0.0233912 -0.00805586 
23 1 -2.45664 4.29265 0.174421 0.0370531 -0.0499889 -0.0306723 
24 1 2.98997 -5.11897 4.52153 -0.0131526 -0.00142145 -0.0108682 
25 1 -2.63947 -2.88023 -1.22488 -0.00646864 -0.0228798 -0.00315259 
26 2 -1.96605 -2.17459 0.127644 0.0300895 -0.0184016 -0.069396 
27 2 -0.552953 2.88982 3.32829 0.0193049 -0.0142553 -0.00376768 
28 2 -2.49842 2.90962 -3.61022 -0.0346954 -0.00879694 -0.00128988 
29 2 -2.37539 -0.0937014 4.70788 0.0589265 0.00758227 0.000267913 
30 2 -1.81621 3.72257 1.27467 0.0191652 -0.00996341 -0.0146489 
31 2 1.74147 4.39644 -4.70049 -0.0636481 -0.0384937 0.000336564 
32 2 0.0309163 0.202302 2.24216 0.00740311 -0.0309494 0.0266001 
33 2 2.76327 -1.02936 3.96066 0.0591512 0.0249034 -0.0888633 
34 2 4.82754 4.23987 1.41635 0.0367335 0.00378932 0.00142043 
35 2 -4.54005 -1.30389 3.61903 -0.0485749 0.00871772 -0.00774961 
36 2 0.513604 -1.97667 1.96814 -0.0202332 0.0320841 -0.047075 
37 2 0.7794 4.93068 2.43967 -0.0123851 -0.0207775 0.0426606 
38 2 -4.57954 1.28235 4.11403 0.0164178 -0.0111973 0.0136089 
39 2 -4.27816 -3.12172 -4.81616 0.000919373 -0.00816804 -0.00304431 
40 2 -2.16914 -1.10559 2.76061 -0.0304405 0.0292765 0.0305739 
41 2 0.2096 -1.70265 4.32346 -0.0733827 0.00234297 -0.00509257 
42 2 2.39846 -3.6021 4.02686 0.0292405 0.0488854 0.0287455 
43 2 -1.46094 -4.73313 5.00978 0.0578943 -0.00109934 -0.0042283 
44 2 4.54063 -5.43129 4.91168 -0.00489434 -0.0482596 0.0266958 
45 2 -3.5628 -4.47027 0.00133526 0.0133695 -0.002282 0.0162182 
46 2 -3.72767 -3.70586 2.6351 -0.00797581 0.000973006 -0.0236891 
47 2 -3.50939 3.81213 3.83084 0.0246135 0.00190449 -0.0439391 
48 2 -3.67783 1.104 1.97859 0.0101047 0.0180773 -0.0398041 
49 2 -3.58674 -4.79155 -2.74178 -0.0355764 -0.00597797 0.0296837 
50 2 -3.75974 3.60224 -0.831379 0.0589385 0.00834638 -0.012212 
ITEM: TIMESTEP
300
ITEM: NUMBER OF ATOMS
50
ITEM: BOX BOUNDS pp pp pp
-5 5
-5 5
-5 5
ITEM: ATOMS id type x y z vx vy vz 
1 1 -1.0407 -1.46113 1.37638 -0.0266822 0.00161163 -0.00210994 
2 1 4.3174 -2.62913 3.61597 -0.045832 0.0266347 -0.0195131 
3 1 -2.77804 -3.3987 1.45122 -0.0134812 -0.0327793 -0.0206013 
4 1 -1.18483 -0.764444 3.93661 -0.0116965 0.0409587 0.00622517 
5 1 -3.40975 -2.6504 4.05855 -0.0818527 0.0277798 -0.0178528 
6 1 4.1703 0.135323 4.32271 -0.00500653 0.0617213 0.0440813 
7 1 -2.99572 4.77534 -3.96874 -0.0216548 0.0380197 0.0295456 
8 1 -0.0577292 4.3647 -4.47172 -0.0350352 -0.00769572 -0.00419907 
9 1 -2.06159 4.07793 4.04614 0.0582235 -0.0289013 0.000411076 
10 1 -4.8798 3.05036 4.39165 0.0151868 -0.0404001 0.0136174 
11 1 -4.39156 4.75141 2.99712 0.0217197 0.0477157 -0.0411822 
12 1 -3.42104 0.0819802 2.76053 0.0231786 0.0152691 -0.0277544 
13 1 -0.837671 1.46313 2.83121 -0.0231952 0.00765492 -0.0214009 
14 1 -3.98811 2.82882 1.39521 0.0479012 -0.00873343 0.0309615 
15 1 -3.06868 1.43201 -4.65424 0.0114616 -0.0214059 0.0233798 
16 1 -4.9377 -4.07162 -3.59896 -0.0401829 0.0138959 -0.00682857 
17 1 1.01284 -0.854631 2.77178 0.0153818 0.0120699 0.00351229 
18 1 0.967366 -3.43045 2.44207 -0.0110088 0.034246 -0.0337151 
19 1 1.95519 -2.04533 4.5732 0.0118347 0.0279178 -0.0107662 
20 1 -4.20699 4.71814 -0.61975 0.0298861 -0.00947241 0.0335267 
21 1 -0.4148 3.99966 2.02369 0.0280466 -0.0058975 0.00884389 
22 1 -2.84143 3.58812 -2.40212 -0.0381728 -0.0387764 -0.0331696 
23 1 -2.23198 4.04562 0.0475386 0.0422527 -0.0060917 0.0191554 
24 1 2.65642 4.91769 4.57013 -0.0469487 0.00203642 0.0196903 
25 1 -2.72468 -3.23618 -1.13089 -0.00629305 -0.0408628 0.0135739 
26 2 -1.6975 -2.39163 -0.328865 0.0279623 -0.00925993 -0.0190359 
27 2 -0.660928 2.89629 3.55659 -0.047175 -0.00559237 0.035413 
28 2 -2.89243 2.98364 -3.83461 -0.0401118 0.0285404 -0.0425777 
29 2 -1.84339 0.400572 4.90523 0.0406898 0.0769464 0.0170177 
30 2 -1.58621 3.63481 1.25034 0.00592456 -0.00783833 -0.0110657 
31 2 1.46123 4.01678 -4.68565 0.0183764 -0.0281376 0.00419934 
32 2 -0.11758 0.248711 2.60681 -0.0316438 0.00733078 0.0400085 
33 2 2.95608 -0.812631 3.14308 -0.0398346 0.0215865 -0.0591522 
34 2 5.17806 4.02436 1.60985 0.0297739 -0.0281473 0.0215758 
35 2 -4.86392 -1.34615 3.42899 -0.00171747 0.00408738 -0.00909984 
36 2 0.379202 -2.27519 1.44196 0.0037173 -0.058599 -0.022588 
37 2 0.650233 4.77291 2.69191 0.0143706 0.0433266 0.00855888 
38 2 -4.52387 1.2979 4.4737 -0.00453741 0.00879359 0.0448116 
39 2 -4.20978 -3.38561 -4.86908 0.00604298 -0.0430587 0.0063307 
40 2 -2.41931 -1.26821 2.64503 -0.00495525 -0.0420134 -0.032602 
41 2 -0.0727295 -1.87135 4.32003 0.0333385 -0.0354027 -0.010399 
42 2 2.82212 -3.26423 4.20884 0.054513 0.00720145 0.00766325 
43 2 -1.17389 -4.96734 -5.04137 -0.0243527 -0.0343113 0.00610937 
44 2 4.41921 4.2164 5.05409 -0.0244817 -0.00684628 0.00488482 
45 2 -3.07919 -4.07564 0.062426 0.0579572 0.0328779 -0.00585895 
46 2 -3.74973 -3.6637 2.78331 0.00493462 0.000530847 0.0384474 
47 2 -3.53054 3.69872 3.56562 -0.026956 -0.0362079 -0.00269886 
48 2 -3.6366 1.44113 1.44665 0.00467086 0.0267475 -0.0418195 
49 2 -3.82025 -4.8245 -2.53452 -0.00905162 -0.000640745 0.0147365 
50 2 -3.09949 3.3137 -0.924183 0.0545147 -0.0384288 -0.000290376 
ITEM: TIMESTEP
400
ITEM: NUMBER OF ATOMS
50
ITEM: BOX BOUNDS pp pp pp
-5 5
-5 5
-5 5
ITEM: ATOMS id type x y z vx vy vz 
1 1 -1.24852 -1.60338 1.18131 -0.000789677 -0.0295996 -0.0337199 
2 1 3.8167 -2.28174 3.21856 -0.0493921 0.0501329 -0.0621822 
3 1 -2.89031 -3.51871 1.52648 0.00571404 0.0115316 0.0200831 
4 1 -1.17614 -0.518751 4.14235 0.0197997 0.0120989 0.0217753 
5 1 -3.93359 -2.33926 3.84242 -0.00782764 0.0141822 -0.0096386 
6 1 4.228 0.522278 4.45414 0.00477431 0.00515655 -0.0118635 
7 1 -3.13113 5.31449 -4.17749 0.00391343 0.0384572 -0.0459544 
8 1 0.000781185 4.11492 -4.58726 0.0109603 -0.032319 -0.0156877 
9 1 -2.00099 3.74217 3.94881 -0.0876645 0.00220875 0.0121786 
10 1 -4.62672 2.86247 4.64419 0.031777 0.0336243 0.0367816 
11 1 -4.32106 5.06892 2.70788 -0.0192739 -0.0265602 -0.00101125 
12 1 -3.43509 0.0966294 2.34803 -0.0171948 -0.0236977 -0.0484455 
13 1 -1.12187 1.73936 2.74223 -0.0271087 0.000429243 -0.00999282 
14 1 -3.41508 2.83352 1.84574 0.0600897 0.00516978 0.0531256 
15 1 -2.8906 1.40316 -4.50789 0.0170489 0.018374 -0.00130584 
16 1 -5.45397 -4.07506 -3.80129 -0.0584044 -0.0212849 -0.0359599 
17 1 1.06855 -0.561745 2.57699 -0.0574856 0.0382596 -0.0432532 
18 1 0.834748 -3.43328 2.31902 -0.0105117 0.0150115 0.00895499 
19 1 1.90943 -1.90832 4.5666 -0.0187101 -0.00349767 0.00590987 
20 1 -4.12776 4.62159 -0.351551 -0.00249898 -0.0176541 0.0189019 
21 1 0.0212707 3.97097 2.32781 0.0541472 0.01059 0.0403366 
22 1 -3.30134 2.92134 -2.50178 -0.0485922 -0.0562143 -0.000952945 
23 1 -1.70688 4.07564 -0.0304706 0.0524204 0.00453659 -0.0230494 
24 1 2.41525 4.92922 4.7209 0.0134199 0.00508809 0.00234171 
25 1 -2.52615 -3.33924 -1.27999 0.0397523 0.00467366 -0.0226052 
26 2 -1.498 -2.25045 -0.423256 -0.00416833 0.0235816 -0.00514177 
27 2 -0.969495 2.73924 3.68142 0.0319076 -0.0174019 -0.00952901 
28 2 -3.26327 3.27343 -4.16201 -0.0408036 0.00647364 -0.00017641 
29 2 -1.59496 0.952904 4.88899 0.00700641 0.0161853 -0.00813291 
30 2 -1.38613 3.4929 1.56525 0.0319042 -0.0165561 0.0599882 
31 2 1.47474 3.90896 -4.57181 -0.0265929 0.00264057 0.0140644 
32 2 -0.431397 0.0580802 2.87335 -0.0317134 -0.0153967 0.00457711 
33 2 2.34767 -0.717129 2.95065 -0.0125883 -0.0111939 0.0238175 
34 2 -4.60947 4.04231 1.48024 0.0240856 0.0272606 -0.0475516 
35 2 -4.7612 -1.16128 3.5786 -0.00471408 0.035439 0.0244129 
36 2 0.307558 -2.44875 1.34507 -0.023305 0.0324977 -0.016022 
37 2 0.872922 5.35481 2.72063 0.0187095 0.00159116 0.0170951 
38 2 -4.62899 1.24384 4.92934 -0.00118338 -0.0141364 0.0509008 
39 2 -4.12011 -3.74449 -4.59444 0.00880127 -0.00911128 0.0314073 
40 2 -2.2965 -1.52334 2.33957 0.00864559 -0.00811663 -0.0269641 
41 2 0.606054 -2.04091 4.02702 0.0835541 -0.00276643 -0.0361803 
42 2 3.16248 -3.24559 4.34856 0.00889911 0.00586096 0.0240975 
43 2 -1.73311 -5.12725 5.22093 -0.0421067 -0.00471282 0.0361612 
44 2 4.07898 4.26435 -4.93093 -0.0383239 0.00991708 -0.00018024 
45 2 -2.88405 -4.509 0.13572 0.00102099 -0.0794395 0.0145155 
46 2 -3.60022 -3.62049 2.84633 0.0216689 0.0222471 -0.0202557 
47 2 -3.56958 3.34965 3.52968 0.0133379 -0.0298291 -0.0309179 
48 2 -3.42855 1.14735 1.35158 0.0334749 -0.0522017 0.0236155 
49 2 -3.84796 -4.79828 -2.30762 -0.000969184 0.00829811 0.0327646 
50 2 -2.71939 3.20992 -0.957103 0.0250898 0.0101723 -0.0111323 
ITEM: TIMESTEP
500
ITEM: NUMBER OF ATOMS
50
ITEM: BOX BOUNDS pp pp pp
-5 5
-5 5
-5 5
ITEM: ATOMS id type x y z vx vy vz 
1 1 -1.15943 -1.76874 0.782944 -0.00507989 0.0111326 -0.0448829 
2 1 3.35371 -1.69589 2.67269 -0.0195984 0.042968 -0.0496227 
3 1 -2.65373 -3.42237 1.47179 0.019904 -0.0059029 -0.0137381 
4 1 -0.943735 -0.421351 4.28802 0.0232743 0.00534737 0.00452573 
5 1 -3.83305 -2.37746 3.88561 0.00239787 -0.0152675 0.0176387 
6 1 4.37582 0.303445 4.22896 0.0311408 -0.0259965 -0.0151328 
7 1 -3.0391 -4.52403 -4.23154 -0.0045368 0.0288741 0.0415585 
8 1 -0.300793 3.75128 -4.82924 -0.042927 -0.0353966 -0.0257209 
9 1 -2.49751 3.83403 4.28784 0.012258 0.00725555 0.0314007 
10 1 -4.69864 3.33017 5.03733 -0.071113 0.0321498 0.0316268 
11 1 -4.60552 -5.29049 2.71651 -0.0259494 -0.0276815 -0.017775 
12 1 -3.57606 -0.619852 2.11744 -0.00292937 -0.0747523 -0.0130974 
13 1 -1.28435 1.50823 2.63846 -0.0057368 -0.015468 0.00108202 
14 1 -2.91967 2.80515 1.8517 0.0366455 -0.00799161 -0.05731 
15 1 -2.85953 1.59994 -4.67448 -0.0195051 0.0108261 -0.0212564 
16 1 4.20076 -4.30267 -4.33819 0.0031854 0.00896551 -0.0550938 
17 1 0.556313 -0.45343 2.17194 -0.0172867 -0.0241955 -0.0348697 
18 1 0.691348 -2.94239 2.5123 -0.0160711 0.0248702 0.0182 
19 1 2.10094 -1.98095 4.77718 0.0315036 -0.0113314 0.0137311 
20 1 -4.02493 4.40262 -0.304058 0.0368647 -0.00815163 -0.0205024 
21 1 0.27489 3.87848 2.78311 -0.0136243 -0.0393108 0.0425677 
22 1 -3.66253 2.80655 -2.37402 -0.0178338 0.0227915 0.024553 
23 1 -1.45619 4.01661 -0.0819658 -0.00487724 -0.0173783 0.0114337 
24 1 2.51544 4.9316 4.55894 -0.0354793 -0.00847464 -0.0425155 
25 1 -2.21131 -3.40537 -1.37808 0.0106298 -0.0229123 -0.00103494 
26 2 -1.8638 -2.18964 -0.556774 -0.0566959 -0.0129351 -0.0195383 
27 2 -0.421022 3.04256 3.88465 0.0552376 0.0407164 0.0495167 
28 2 -3.58923 3.09062 -3.92597 0.000209174 -0.0122002 0.0377884 
29 2 -1.6839 0.745812 4.88962 -0.018129 -0.038514 0.00523124 
30 2 -1.1686 3.37545 1.79966 0.00541246 -0.0140054 -0.0211836 
31 2 1.304 4.10949 -4.48238 -0.0093207 0.0364898 0.00519676 
32 2 -0.715609 0.177555 2.70884 -0.0197098 0.0284644 -0.0228228 
33 2 2.61469 -0.789445 3.27626 0.0266471 0.0275521 0.0412202 
34 2 -4.45215 4.26489 1.10117 -0.0109353 0.00577304 -0.00191262 
35 2 -4.95287 -0.786212 3.64142 -0.00724737 0.0164447 -0.0237611 
36 2 0.20718 -2.00218 1.28037 0.0186895 0.0495738 0.00275438 
37 2 1.15762 -4.90123 3.03251 0.0472933 0.000912943 0.033413 
38 2 -4.5407 1.25489 5.41793 0.00318458 0.00382907 0.0322355 
39 2 -4.34217 -3.47178 -4.51385 -0.0248555 0.0312345 -0.0115288 
40 2 -2.46267 -1.61834 2.05105 -0.0342818 -0.0255785 -0.0352745 
41 2 0.766285 -2.19278 3.54742 -0.0242897 -0.00707775 -0.0188952 
42 2 3.16901 -3.11927 4.59965 -0.00786396 0.00737449 0.0294005 
43 2 -1.6473 4.71948 -4.67599 0.0294792 -0.0286388 -0.0114061 
44 2 3.93338 4.3972 -4.96191 0.0237918 0.00295558 -0.0117148 
45 2 -2.47317 -4.78626 0.365432 0.0870092 0.0253117 0.0242341 
46 2 -3.68788 -3.62051 2.82832 -0.0318284 -0.026151 0.0129785 
47 2 -3.64077 3.18001 3.30304 -0.0280606 0.00789302 0.016203 
48 2 -2.96416 1.10612 1.65838 0.0556361 0.023537 0.0469088 
49 2 -3.86784 -4.63732 -1.8895 0.00208186 0.0200933 0.0473537 
50 2 -2.52592 3.17578 -1.20907 0.0132906 -0.0180243 -0.0321623 
