ITEM: TIMESTEP
0
ITEM: NUMBER OF ATOMS
5000
ITEM: BOX BOUNDS pp pp pp
0 100
0 100
0 100
ITEM: ATOMS type id x y z vx vy vz 
1 1 4.45351 18.4896 59.5936 -0.112679 0.110463 0.0130021 
1 2 22.8062 62.0462 76.2527 0.0746268 0.0651985 0.0728136 
1 3 37.7904 18.5595 64.7066 -0.0232523 0.0882254 0.0367104 
1 4 6.37826 94.5564 17.0253 0.0794517 -0.116844 0.0775158 
1 5 9.37437 96.7671 12.0663 0.0591388 -0.112271 0.0954947 
1 6 6.07822 0.356765 7.81383 -0.0502421 -0.1077 0.0722933 
1 7 43.8071 73.3344 51.6389 0.0814597 0.0956013 0.10939 
1 8 46.0627 48.2876 67.1199 -0.0995899 0.0278614 -0.0691764 
1 9 15.104 19.2606 58.4891 -0.110499 -0.0452333 0.112924 
1 10 33.3518 1.3408 1.73859 -0.0855303 -0.0469522 0.101492 
1 11 47.8008 33.8169 81.0339 -0.0890348 -0.0282198 0.0793088 
1 12 78.5464 81.7195 47.3545 -0.0807052 0.00615763 0.0819941 
1 13 48.6489 20.5874 67.907 0.106125 -0.117384 0.0980322 
1 14 92.7151 53.8506 8.63695 -0.0187033 -0.0737535 0.0454344 
1 15 94.9883 71.2228 59.3548 -0.0105096 0.00370469 0.0755017 
1 16 20.8792 72.4714 83.6995 -0.0231516 -0.0819221 -0.0781384 
1 17 53.7942 89.1769 95.1194 -0.059666 0.0972518 -0.0951288 
1 18 50.7015 50.4299 11.7476 -0.104122 0.0146422 -0.0738807 
1 19 15.1516 42.6532 80.0478 0.0054693 0.0487789 0.072675 
1 20 98.0418 12.5635 79.0764 -0.0238726 -0.0896887 0.0354648 
1 21 4.24557 89.6636 28.5005 0.104741 -0.090914 -0.0634216 
1 22 77.2067 51.5868 51.1657 -0.0355823 -0.109108 -0.0712488 
1 23 95.1915 55.3737 90.9985 -0.0080674 0.0629604 -0.0491503 
1 24 29.28 5.63507 60.3626 -0.0447242 -0.0549442 -0.0812998 
1 25 58.1122 50.6025 32.7604 -0.0962123 -0.0270071 -0.0310414 
1 26 41.8149 3.29487 76.977 -0.0656907 -0.0899908 0.0816367 
1 27 43.9092 19.1867 8.26678 -0.0794828 0.0564731 -0.0921933 
1 28 86.0861 85.6602 8.63685 0.0949217 -0.00880382 -0.0957858 
1 29 57.9726 76.8762 61.7567 0.0320135 -0.0241192 0.0667583 
1 30 72.1063 89.6667 97.4322 -0.0253288 -0.11109 -0.0935173 
1 31 27.7022 99.4003 92.6729 -0.0340649 0.00859452 0.0515223 
1 32 1.04943 71.3531 8.30218 0.073389 -0.0108739 0.0444343 
1 33 57.4805 48.9381 11.0846 -0.0523949 0.0385716 -0.080328 
1 34 54.9387 60.0599 29.5651 -0.0651946 0.0975477 -0.0131247 
1 35 57.4417 10.6148 19.626 -0.0556338 0.0967486 0.0636983 
1 36 29.8534 57.4784 26.8957 0.0118404 0.00265819 -0.046968 
1 37 25.0078 29.8587 39.8507 0.0710586 -0.0538251 0.0971318 
1 38 70.9448 53.8645 35.4083 -0.0141759 0.097569 0.112464 
1 39 89.1654 50.9954 82.9979 0.112189 0.0266894 0.0286022 
1 40 21.6306 43.073 81.2006 0.0415298 -0.073306 0.113272 
1 41 99.2239 28.3204 16.7101 -0.0608342 0.0248432 -0.027674 
1 42 24.5037 90.2169 42.7977 -0.0595649 -0.0671618 -0.0195079 
1 43 40.1309 72.9945 81.1209 0.0209285 -0.0243306 0.00632123 
1 44 23.7626 91.0328 68.1376 0.0391337 -0.0566396 0.068273 
1 45 81.3455 38.5347 16.2911 0.0473237 -0.0394391 -0.0811682 
1 46 12.135 52.6535 77.0617 0.0189489 0.00720824 0.0405426 
1 47 23.87 75.8506 95.7196 -0.0198149 0.106723 0.0360337 
1 48 67.9359 50.2217 32.0427 -0.115149 0.0516329 0.0660885 
1 49 40.4983 60.4291 4.60972 -0.104458 -0.0412228 -0.0175702 
1 50 61.0836 67.4059 23.2823 -0.0162212 -0.0441746 -0.0244562 
1 51 3.3757 22.5439 65.5964 -0.00631556 -0.0698127 -0.0933508 
1 52 81.1826 1.84997 20.5634 -0.0310832 0.0534359 0.0951904 
1 53 55.3972 7.86964 47.4934 -0.0410511 -0.0361543 -0.067227 
1 54 40.1546 14.2775 3.89255 0.0500852 0.0287969 0.0508935 
1 55 20.9055 81.8548 47.5611 -0.0158982 0.0294923 0.0943075 
1 56 0.0682881 13.3528 21.9694 0.0243058 -0.085724 0.0665145 
1 57 31.5097 45.743 18.2315 0.0683266 -0.093822 -0.0344412 
1 58 22.7362 77.7104 75.5444 0.0827406 -0.0337604 0.112735 
1 59 90.7404 93.494 0.802911 -0.00229429 -0.0200842 0.1129 
1 60 63.3549 33.6783 9.18934 -0.0260084 0.109996 0.0747902 
1 61 37.412 87.1741 1.55838 -0.105163 -0.0181546 -0.059042 
1 62 76.7859 32.4949 51.2055 -0.0172364 -0.105131 -0.0802314 
1 63 34.5527 48.9221 21.7645 -0.0720024 0.0236147 0.0524447 
1 64 29.3144 44.0926 10.1973 -0.026861 -0.0139362 0.0430187 
1 65 86.2802 35.7597 96.0841 -0.0911781 0.0467721 0.112524 
1 66 81.6116 53.0057 4.73543 -0.0536547 0.0579284 -0.0854418 
1 67 61.027 23.2285 10.5602 -0.079015 0.000617626 -0.109072 
1 68 83.4744 39.567 98.0386 0.0607449 0.101203 -0.065156 
1 69 36.975 62.2655 29.1806 -0.074546 -0.109732 -0.0834501 
1 70 65.2916 26.2691 72.705 0.0926645 0.013043 0.0621752 
1 71 26.7677 22.6276 66.1057 0.0306855 0.0126781 -0.0164792 
1 72 53.5862 40.3788 76.8226 -0.0769788 -0.0105528 0.0843571 
1 73 91.918 60.4472 6.62861 -0.00130902 0.00469976 0.0321851 
1 74 31.1038 42.3654 8.66392 -0.0573157 0.00823572 0.0762195 
1 75 98.6349 29.98 5.54684 -0.0691432 0.105577 0.0883848 
1 76 68.9022 13.1492 41.3066 -0.0777498 0.0726086 0.0223575 
1 77 65.6597 63.5622 4.15242 -0.115666 -0.0147301 -0.0248272 
1 78 23.7585 63.9496 2.25858 0.0455572 0.078901 0.0502352 
1 79 68.0943 9.85064 14.4011 0.099071 0.0959157 0.0382529 
1 80 92.9163 88.1075 92.931 -0.0772842 -0.0187497 -0.0468209 
1 81 48.8374 85.9694 9.84119 -0.0185137 0.0845825 0.0586627 
1 82 88.9295 89.4069 15.0914 -0.0856856 -0.0956911 -0.00817586 
1 83 93.9467 54.0619 17.389 -0.0192384 0.0144332 -0.0941217 
1 84 22.0684 40.5367 3.43661 0.05465 -0.101759 0.0178874 
1 85 21.3845 70.8707 61.6132 -0.024306 0.0779018 0.0243306 
1 86 89.756 96.5601 89.8157 -0.0236471 -0.0255721 0.0996925 
1 87 33.7892 33.7061 27.0103 -0.0601009 0.00763958 0.0706701 
1 88 18.0492 38.2405 3.59011 0.0475494 0.027036 0.0319408 
1 89 69.3306 92.7888 51.811 0.029534 -0.0122462 0.0350928 
1 90 77.2803 14.3698 39.8526 -0.0919718 -0.0189541 0.0113581 
1 91 6.57052 64.3252 30.1147 -0.0753239 0.0911455 -0.0239366 
1 92 53.459 34.3066 38.7858 0.110237 0.0574494 0.0136793 
1 93 34.2255 41.4689 0.378644 0.0464358 -0.0582872 0.091475 
1 94 62.6158 65.9286 79.6484 -0.0722467 0.110196 -0.0462983 
1 95 37.9174 0.26392 45.3993 -0.0852168 0.0979411 0.0775966 
1 96 74.7875 33.9456 76.1325 0.021128 0.0688629 -0.053641 
1 97 37.2829 81.9611 16.1869 -0.066547 -0.0421699 -0.100548 
1 98 17.1386 91.4821 55.0912 0.109885 -0.0338798 -0.0324982 
1 99 59.0709 97.5939 34.5784 -0.0980281 -0.0388922 0.0285469 
1 100 39.6787 32.2338 83.9642 0.0431295 0.0308905 0.0738066 
1 101 68.4208 33.2806 68.4795 -0.102068 0.0630273 -0.0885149 
1 102 1.59073 18.0486 38.6577 -0.0290252 -0.0581998 -0.0697414 
1 103 84.6395 31.9563 24.994 -0.057297 0.0892071 0.000668111 
1 104 43.0609 48.7288 57.7262 0.0428443 -0.105399 0.0850115 
1 105 69.6366 82.4518 66.974 0.0510167 0.0809615 -0.0183083 
1 106 31.7367 7.73605 82.3518 -0.0779881 0.0276516 -0.10069 
1 107 97.0505 64.5996 75.8453 0.0408655 -0.0604473 0.116108 
1 108 44.2385 49.4475 46.1249 0.108408 0.0594912 0.0971228 
1 109 90.2739 47.0955 29.4063 0.0670949 -0.0672719 -0.00805572 
1 110 56.6076 54.5061 3.60963 -0.0959898 -0.0145562 0.102659 
1 111 13.3613 91.5596 41.8809 -0.0312016 -0.0741778 -0.0993324 
1 112 76.1209 97.7077 72.6515 0.0418287 0.0590042 0.062666 
1 113 23.2911 13.4539 14.3532 -0.103902 -0.0233497 -0.0426069 
1 114 96.1537 63.7169 13.4132 0.00900911 -0.0753819 -0.0771025 
1 115 79.9566 1.18747 11.7067 -0.115518 -0.0887409 -0.103085 
1 116 63.961 95.7105 37.8356 0.0905158 -0.00312881 0.0355193 
1 117 24.7622 44.6737 17.4118 0.0887079 -0.113077 0.0602193 
1 118 93.0664 89.6021 90.3596 -0.00608438 0.0893735 0.00407818 
1 119 70.9017 16.3663 98.261 0.0670477 0.0703716 -0.080015 
1 120 69.9341 83.2427 59.6967 0.0723826 0.0753566 0.0970933 
1 121 20.8613 61.467 11.8139 0.0364118 0.073791 0.100638 
1 122 69.3183 18.7029 61.081 0.00145176 0.0616209 0.027641 
1 123 62.7876 71.6296 79.3991 -0.0450835 -0.0393492 0.0324046 
1 124 60.2423 98.0037 63.309 -0.0945677 -0.0992084 0.0275381 
1 125 71.973 44.2568 43.3827 0.0889379 0.0264782 -0.0271471 
1 126 99.7582 1.49442 19.2175 -0.0534872 0.0782305 -0.0397619 
1 127 94.4941 29.3755 51.552 0.0851406 0.0147756 0.0722268 
1 128 46.0247 48.8078 62.5409 -0.104678 -0.0140645 -0.0163832 
1 129 15.2895 36.5076 32.9736 -0.0938256 0.0295943 -0.0536388 
1 130 60.1306 81.2893 29.7052 -0.0295751 0.0146608 0.00517147 
1 131 40.844 48.0084 97.4743 0.0441951 0.00883321 0.104225 
1 132 31.2186 48.9513 80.7286 -0.0281543 -0.0922729 -0.0814682 
1 133 78.2256 7.32218 60.2072 0.100277 0.109987 -0.0749799 
1 134 82.3854 91.5643 42.4294 -0.071317 -0.101093 0.0207688 
1 135 74.5864 56.71 37.9341 -0.0363792 0.00357353 -0.0330142 
1 136 93.6663 2.77117 55.4333 0.0792824 0.0647051 -0.0684997 
1 137 61.2587 3.09938 52.4036 0.085804 -0.0142953 0.0627237 
1 138 33.7445 1.8179 68.4851 -0.0665015 0.0228 0.0999512 
1 139 64.6755 52.8144 45.2339 0.0957767 -0.0778546 0.0509642 
1 140 72.9706 27.2767 74.6728 0.0078071 -0.0168436 0.0832665 
1 141 75.5761 90.2261 71.8832 0.0659444 -0.0753406 -0.0818987 
1 142 45.0209 58.617 67.2489 0.0841767 -0.116944 0.0369756 
1 143 29.1554 66.4718 21.7871 0.112424 0.0282462 0.110241 
1 144 34.4302 34.1512 29.8889 0.00751026 -0.115372 -0.0866895 
1 145 10.172 88.2254 73.5108 -0.0901837 -0.00847177 -0.104053 
1 146 49.0324 55.8832 8.94795 0.110739 -0.115253 0.0381027 
1 147 85.4643 74.6404 16.3634 -0.0401631 -0.0161398 0.0359047 
1 148 28.2959 84.9623 65.5895 0.0451952 0.0506529 -0.101893 
1 149 77.95 47.4217 42.7044 0.0806818 0.063555 -0.0698867 
1 150 6.87542 64.516 49.0551 0.0626201 -0.0555734 0.0561398 
1 151 19.3977 9.44982 68.4507 -0.103147 0.0975808 0.0779145 
1 152 77.7445 74.9573 96.2514 0.00680794 -0.0421632 0.0126278 
1 153 56.1256 11.6858 24.9751 0.0723805 0.0388914 -0.0604576 
1 154 74.3009 50.6878 46.6447 -0.0557352 0.0241431 0.0833775 
1 155 50.6369 30.2897 74.051 0.0674875 0.0100058 0.0168375 
1 156 28.4712 48.1904 67.2662 0.0286954 0.100201 0.0961992 
1 157 48.4834 95.6272 89.5344 -0.0860339 0.104871 0.101079 
1 158 98.4921 80.9919 62.661 -0.0524055 0.0936022 0.0460413 
1 159 94.5412 11.5644 45.0943 -0.0575886 0.0789467 -0.112571 
1 160 15.2378 1.82096 11.7656 -0.0643441 -0.0461593 -0.0804723 
1 161 94.8455 38.1688 69.2528 0.0716255 -0.0748416 -0.0778764 
1 162 10.046 3.96529 78.5421 -0.0802182 0.0396831 -0.0301486 
1 163 24.7014 39.0883 40.0231 0.0355798 0.0638325 -0.0638034 
1 164 95.8538 75.0223 21.6241 0.0681716 0.0967401 -0.0798129 
1 165 31.2425 23.8095 26.2735 -0.0240002 0.0940726 0.0339031 
1 166 24.119 25.4552 26.787 -0.0592403 0.0329531 0.0398345 
1 167 46.2305 90.7028 71.8616 -0.0442041 0.0696933 -0.0700995 
1 168 0.856941 22.2182 11.9142 -0.0205724 -0.0491649 -0.0599831 
1 169 14.1819 11.7378 74.2551 0.0011456 0.0394829 0.0984782 
1 170 76.5358 77.2791 57.4593 0.025017 -0.00950318 0.0270707 
1 171 43.4479 87.1525 41.5903 -0.0807432 0.0660134 0.0278606 
1 172 10.4707 71.0169 74.8527 -0.0796489 0.0597028 -0.0716457 
1 173 64.0696 44.1481 43.1688 0.0752261 -0.108696 0.0856989 
1 174 45.9017 78.35 80.7598 -0.0396248 -0.0502019 -0.0233837 
1 175 15.2277 23.7704 40.8327 0.0861477 -0.0594584 -0.0312653 
1 176 33.3866 28.7034 17.5248 -0.101675 -0.0876702 -0.0403974 
1 177 39.3776 98.6626 78.5731 0.116509 -0.0165315 -0.0274355 
1 178 31.809 4.79855 86.7962 -0.010097 -0.0475074 0.0855273 
1 179 73.7276 88.3927 73.273 0.103692 -0.0257903 -0.0742317 
1 180 15.5404 80.9515 63.641 -0.0729357 -0.0592391 -0.0724085 
1 181 39.4531 29.478 85.2669 0.0626122 0.0459103 0.0669081 
1 182 38.6836 19.6882 70.4992 -0.0692609 -0.0104672 -0.1057 
1 183 77.1383 60.7398 41.226 -0.0920783 0.0538966 -0.0791353 
1 184 71.5801 35.872 0.422535 -0.0477367 0.0819869 -0.0174379 
1 185 76.9968 19.2759 68.637 0.110889 0.0742832 -0.0114437 
1 186 28.8381 19.357 75.5026 0.0186626 0.0854506 -0.0233454 
1 187 9.13085 75.6719 74.925 0.0321098 -0.0359209 -0.10348 
1 188 95.9353 84.7576 20.2776 -0.0432667 -0.0127701 0.0793942 
1 189 6.14336 2.84418 36.1923 -0.0426744 -0.0716594 0.0748342 
1 190 12.4912 66.3366 22.1904 -0.0633803 0.0836628 -0.0291144 
1 191 71.4311 41.8024 73.3923 -0.0488633 0.00981788 -0.113838 
1 192 4.08477 82.6749 60.6866 0.0661126 -0.0420487 0.0731928 
1 193 39.6334 18.9054 43.0504 0.0618247 0.0834008 -0.00713142 
1 194 48.8348 79.8539 0.864246 0.0685942 -0.0201886 -0.0112606 
1 195 64.4848 75.6893 86.2223 0.0686877 -0.0793821 -0.00580574 
1 196 50.2402 6.08086 4.12927 -0.00737472 0.0606868 -0.0689682 
1 197 3.05878 95.4779 32.5824 -0.103725 -0.0787449 -0.00848091 
1 198 73.7292 67.1762 30.3013 -0.0227839 0.0426477 -0.0403482 
1 199 73.996 41.5502 61.5535 0.0123017 0.0695691 -0.0608214 
1 200 33.9346 74.5035 46.0797 -0.114758 0.101274 -0.0272015 
1 201 62.2155 17.6458 87.9383 -0.0364791 -0.0456897 -0.105451 
1 202 21.5998 47.3688 53.2373 -0.0892515 0.0562726 0.0302403 
1 203 30.4679 66.3334 32.0411 0.0924157 0.0233828 0.113125 
1 204 57.0513 43.2963 19.4073 0.0360851 -0.0602755 -0.025289 
1 205 25.5881 94.4589 45.8003 -0.0302809 0.0293905 0.0136806 
1 206 52.4662 89.0575 90.8234 0.0677842 0.105222 -0.0470573 
1 207 9.25571 33.9273 16.9439 -0.0328908 -0.0522032 0.109488 
1 208 66.2219 31.6067 7.5486 -0.0773944 -0.00861894 -0.0158352 
1 209 11.1389 16.6482 67.794 0.0346096 0.0595089 -0.0713479 
1 210 43.4038 87.4051 16.8613 -0.0439344 -0.0554138 -0.0548723 
1 211 87.9625 15.9252 72.2064 -0.0348826 0.00634715 0.00682503 
1 212 88.8923 40.6675 52.6332 -0.11025 -0.0567942 0.0316253 
1 213 14.4403 40.2649 25.1657 0.0824352 -0.0428357 -0.111879 
1 214 67.8428 25.6007 90.2477 -0.0664864 0.043645 -0.0454864 
1 215 19.5627 14.3452 36.4376 0.0531367 0.081638 -0.0591609 
1 216 2.62367 82.7291 89.6521 0.0796112 0.00202519 0.026731 
1 217 67.0932 50.347 95.7863 0.0316308 0.0639329 -0.00639676 
1 218 90.8609 19.7408 53.8612 0.0732675 0.042774 -0.0134418 
1 219 97.1249 77.8158 49.5763 -0.028652 -0.0733103 0.0417174 
1 220 29.1386 6.14991 46.4393 -0.070621 -0.0471974 -0.0615651 
1 221 80.6297 32.2468 6.31334 -0.0383665 -0.0948039 -0.00194579 
1 222 37.5363 53.4355 30.1506 -0.107138 0.09267 -0.0189236 
1 223 9.28591 47.0124 58.3815 0.0605448 -0.00245994 0.0988915 
1 224 71.2753 31.3746 19.9126 -0.0147363 -0.00458373 0.0352982 
1 225 53.9511 54.2212 2.80808 0.099603 -0.0447459 -0.0793992 
1 226 83.3049 39.1742 20.3468 -0.0569369 0.0876571 0.0337248 
1 227 62.9839 76.1347 25.0028 -0.0299194 0.0501549 -0.0890002 
1 228 42.8855 45.1403 73.1864 -0.0338663 0.0869446 -0.0652041 
1 229 17.5038 77.2158 55.3669 0.0492766 -0.0538502 -0.0909402 
1 230 98.5229 69.0266 71.8423 -0.0372516 0.0135408 0.0442022 
1 231 42.2741 28.7124 24.553 0.00647904 0.0190896 -0.0812261 
1 232 78.8988 63.8757 94.8819 -0.0222501 -0.0679936 -0.0278407 
1 233 93.9258 51.4627 89.5936 -0.0662648 0.042377 0.0684355 
1 234 7.68085 8.11575 76.5599 -0.0151356 0.0370082 -0.0396179 
1 235 8.78505 87.6911 98.2474 -0.0565969 -0.0198559 -0.00814398 
1 236 95.5603 87.5991 2.60779 0.0507732 -0.0515504 -0.0976366 
1 237 77.813 27.17 55.2682 -0.100419 0.0669276 0.0233494 
1 238 34.9097 99.7145 74.528 0.0195544 -0.0633862 0.0923701 
1 239 67.4596 72.2697 88.2833 0.0669434 -0.0518419 -0.105868 
1 240 77.5295 38.6876 21.909 0.112739 -0.0428868 -0.0390694 
1 241 24.5771 63.3009 28.2918 0.0799508 -0.112275 0.0205577 
1 242 74.6743 63.7912 99.4703 -0.0912664 -0.0408211 -0.0208999 
1 243 57.1854 70.0751 24.405 -0.0873717 -0.0224572 0.0536386 
1 244 3.81495 81.7862 7.90158 0.0115333 -0.0354187 -0.0455195 
1 245 30.8479 87.7563 48.96 -0.0378205 0.000379479 0.0802724 
1 246 59.3299 44.3017 92.2941 0.046671 -0.0644474 -0.0436978 
1 247 67.0206 14.718 46.741 0.0723694 0.0856765 0.0479906 
1 248 36.488 21.8952 6.01281 0.10127 0.0210994 -0.0717238 
1 249 95.8647 51.4908 73.8761 -0.0742818 -0.0932759 0.0627033 
1 250 66.1264 64.7419 57.5654 0.0565896 -0.105538 0.0738146 
1 251 57.5814 16.5003 67.1913 0.0329096 -0.101393 0.112543 
1 252 29.3848 14.5495 61.9207 0.0298519 -0.0248276 0.0374918 
1 253 5.54865 0.949608 73.6212 -0.0612227 0.0156949 -0.079926 
1 254 35.758 35.15 91.2377 -0.0615346 -0.102289 -0.0504637 
1 255 11.6905 83.0469 68.4658 0.00458867 -0.0804746 0.0302025 
1 256 3.39888 99.2647 14.355 -0.0763072 0.0998302 -0.0763365 
1 257 30.2571 92.0168 39.4417 -0.0492952 -0.0288722 0.0599397 
1 258 4.46082 74.8438 41.161 -0.0483776 0.0229847 -0.0576294 
1 259 47.7901 12.3423 76.1004 -0.0303869 0.110762 -0.0909815 
1 260 28.0352 70.6534 92.4473 -0.0315768 -0.0927182 -0.113489 
1 261 77.6696 75.8455 52.3231 0.115454 -0.0508372 0.0127656 
1 262 61.6023 33.8252 35.7176 0.0603408 0.0627598 0.0724668 
1 263 9.45415 58.728 52.6035 -0.0306791 0.0910786 0.0169317 
1 264 31.6338 48.3717 37.4901 -0.0175539 -0.0849881 0.0920968 
1 265 33.7459 98.9233 0.0696089 -0.101242 -0.0251475 0.0159391 
1 266 37.2502 29.1178 98.7784 0.0668628 -0.00957534 -0.0213456 
1 267 79.711 81.6804 51.6277 0.107806 -0.0386782 -0.101921 
1 268 20.4425 64.7552 23.7493 0.0827183 0.0570577 -0.0481171 
1 269 72.7531 36.6639 40.3423 0.0872089 0.0759005 -0.0758618 
1 270 90.9346 98.6232 70.6031 0.00988027 -0.10527 -0.0863232 
1 271 14.3699 29.9118 59.7526 0.0117401 -0.0538244 0.108545 
1 272 36.966 87.2991 35.5217 -0.0864556 0.0045392 -0.104785 
1 273 13.1192 52.2858 8.30945 -0.0768086 0.0551999 -0.0660906 
1 274 24.6745 10.3239 50.2876 0.0533735 0.102309 -0.108685 
1 275 80.4813 49.4018 5.73336 0.05328 -0.0717278 0.0899307 
1 276 57.3683 14.4588 29.4382 0.0546767 0.113731 -0.0235575 
1 277 51.0207 51.3826 53.3165 -0.0402162 0.0236528 -0.00560114 
1 278 35.5666 18.759 49.5341 -0.0619157 0.0125663 -0.0316974 
1 279 78.3691 53.7742 44.4246 0.0873183 0.0521603 0.0811663 
1 280 48.4159 88.6284 7.70434 -0.0676818 -0.0197721 0.00340775 
1 281 8.43108 88.0747 54.9765 -0.0226158 0.0730726 -0.0969324 
1 282 97.1106 37.4719 89.8713 0.0907474 -0.0693151 -0.114911 
1 283 67.747 89.2684 31.6777 -0.024169 0.0525643 -0.114749 
1 284 54.5471 16.3321 10.2329 -0.0994851 -0.0730267 -0.0825005 
1 285 84.9811 2.80393 72.0056 -0.0162127 0.100166 -0.0236191 
1 286 91.13 16.2536 65.632 0.0886736 0.00902886 -0.100663 
1 287 91.0822 2.56867 59.1628 0.0280227 -0.0277615 0.0980752 
1 288 45.8969 49.77 12.1473 0.00542364 -0.0200387 -0.0524333 
1 289 96.3621 91.3197 39.2907 -0.0290551 -0.094719 0.0284719 
1 290 20.9792 14.9786 5.17761 -0.0529902 0.04745 0.0953141 
1 291 47.2315 20.5713 41.132 -0.0571659 -0.0347122 -0.0489581 
1 292 5.69778 79.5715 33.5262 -0.0750678 -0.0290384 0.0624968 
1 293 97.421 56.8819 65.7319 0.079891 0.0455887 0.0190259 
1 294 31.9886 15.144 36.5204 0.0134389 0.0866455 0.032105 
1 295 15.9377 96.1064 54.6727 -0.00552963 0.097851 -0.0389598 
1 296 66.5306 12.85 8.69296 0.0584087 -0.0403486 0.00354915 
1 297 96.7537 60.8359 90.5715 0.0249861 -0.0635049 -0.0401701 
1 298 95.3479 1.46087 21.1947 -0.0220004 -0.062391 0.051864 
1 299 24.6148 83.1897 68.556 -0.00651498 0.0717128 0.104033 
1 300 27.6445 78.5948 3.17712 -0.00687276 0.113333 0.0379702 
1 301 27.2926 22.8061 48.4719 0.0619339 0.0563234 -0.0470491 
1 302 68.3841 27.4938 42.061 0.104365 0.114589 -0.037228 
1 303 10.9776 96.8282 35.8274 0.0542967 0.015216 0.0212966 
1 304 48.0672 99.6269 67.0272 -0.0145486 -0.111605 0.109004 
1 305 7.32201 65.985 35.2481 -0.0630506 0.0356312 0.105521 
1 306 42.8514 26.6932 46.7549 0.0832629 -0.104987 0.0150575 
1 307 26.5026 83.6499 84.9142 -0.079403 0.000649931 -0.0318795 
1 308 76.4286 65.4994 52.1949 0.055051 -0.115406 0.0316413 
1 309 2.33882 37.7238 3.49012 -0.114775 0.0585596 0.0432668 
1 310 47.8589 78.4131 82.9504 -0.112204 -0.0521633 0.0805747 
1 311 50.693 81.0155 54.1367 0.0039931 -0.0763241 -0.0757146 
1 312 88.3763 55.165 83.4912 -0.0776416 0.0284824 -0.111754 
1 313 64.0182 84.6453 54.2585 -0.0641016 0.0703664 0.0645427 
1 314 87.3249 23.0044 95.8899 -0.0024221 -0.0722703 0.0539186 
1 315 31.6998 53.5878 24.5998 0.0596243 -0.103704 -0.0814988 
1 316 97.0159 52.2167 19.8548 0.0517124 -0.102288 -0.0230661 
1 317 70.7641 1.11146 13.2932 0.0688713 -0.0201109 -0.102823 
1 318 48.1979 96.1206 93.4802 0.0534342 -0.0411823 -0.0356588 
1 319 53.2269 5.75889 21.1776 0.112424 0.0138785 -0.102236 
1 320 27.7808 82.9081 24.6734 -0.094202 -0.00801076 -0.0410756 
1 321 23.9362 82.1022 55.3318 -0.103054 0.0258295 0.0145853 
1 322 91.5829 43.1789 10.8996 -0.0973563 0.0747552 0.00389778 
1 323 12.405 31.5612 36.5044 0.0624769 0.100342 -0.0879762 
1 324 73.1313 18.3761 11.3728 -0.0568231 -0.0952764 -0.025181 
1 325 38.3063 54.5286 96.7567 -0.078796 -0.0448689 -0.0506409 
1 326 12.9237 44.3435 51.3639 0.0528538 -0.0158186 0.0787583 
1 327 54.9162 97.2582 40.4772 -0.0171874 0.019892 -0.103629 
1 328 70.4505 91.3288 95.6495 0.0163016 -0.00564263 -0.0625767 
1 329 97.3957 2.52176 28.0535 -0.0406734 0.0251266 0.0776071 
1 330 19.7476 74.0422 30.3192 -0.0363941 -0.0137611 -0.0408641 
1 331 5.84638 8.48653 47.9011 -0.0420611 -0.0109141 0.0671724 
1 332 35.6783 91.5366 89.1342 -0.0522799 0.108412 0.00129168 
1 333 49.7609 55.0726 72.035 0.0434702 -0.0655847 -0.0628812 
1 334 72.9988 61.4394 83.6329 -0.0339904 0.0976042 0.00494168 
1 335 65.6994 17.2274 39.0641 -0.091658 -0.100994 0.0664889 
1 336 32.5492 9.84879 92.1866 0.103719 -0.0367284 0.0648784 
1 337 36.6246 68.4686 26.9816 0.0505212 -0.0948303 0.0208048 
1 338 84.9016 4.74346 97.8082 0.102238 -0.0126005 -0.097094 
1 339 23.2719 97.4608 22.3279 -0.0642319 -0.0247387 -0.0996624 
1 340 15.2194 25.3337 74.246 0.0845783 0.111487 -0.00989457 
1 341 70.5943 77.493 7.51656 -0.0282405 0.0900786 -0.0237142 
1 342 20.3761 40.4229 32.0409 -0.111774 -0.0518065 0.0225947 
1 343 63.9614 32.1525 82.1645 -0.0890461 0.0147724 0.0177214 
1 344 37.272 47.443 17.1861 -0.0202707 -0.101898 -0.000592683 
1 345 65.9359 63.404 59.459 0.0449172 0.0355405 -0.023189 
1 346 15.6784 98.5135 26.7591 0.0986593 -0.0689476 0.00725504 
1 347 77.4765 4.09357 91.604 -0.102434 -0.0253088 0.0998762 
1 348 97.7862 90.7615 28.7735 3.24483e-05 -0.0387558 -0.0079432 
1 349 33.4714 0.995529 19.8448 -0.0679404 0.06009 -0.0854679 
1 350 85.2654 38.519 2.56978 -0.0520141 -0.0820124 0.035216 
1 351 70.3143 18.3322 7.33684 0.115808 0.0726521 0.0552804 
1 352 88.1891 12.5559 44.4383 -0.108209 0.0157864 0.0603847 
1 353 55.0251 27.1113 49.78 -0.0215001 -0.0386843 0.0290872 
1 354 29.4406 99.1277 90.4039 0.0423994 0.102731 0.00067779 
1 355 80.9979 62.5792 60.4612 -0.0273615 -0.041649 0.037836 
1 356 96.4677 47.0759 94.1626 -0.0982897 -0.0105592 -0.0222168 
1 357 90.6879 15.5774 45.9004 -0.0965777 -0.114071 0.113888 
1 358 29.8431 70.8094 85.619 0.0594342 -0.0384576 0.113517 
1 359 43.4943 84.6071 27.9183 0.103984 -0.0105706 0.0190549 
1 360 88.4099 16.9004 64.4992 0.0347374 0.111378 0.0138147 
1 361 15.677 44.8092 38.2369 -0.00738007 -0.029212 -0.0619497 
1 362 90.0662 32.5318 16.4634 0.0180922 0.0472192 -0.0576698 
1 363 59.938 62.8774 81.4979 -0.00948788 -0.0571771 -0.115638 
1 364 85.8682 51.422 32.9399 0.101747 -0.114966 -0.0273959 
1 365 88.8707 16.9323 67.1693 -0.0432951 -0.0232551 -0.0818774 
1 366 15.6931 43.3355 40.8315 -0.0228991 -0.029932 -0.052405 
1 367 62.9509 13.7487 11.5968 -0.0206298 -0.0819562 0.0473516 
1 368 89.1544 75.9725 99.045 0.0742033 -0.0644752 -0.0461504 
1 369 44.6756 18.5604 99.6855 0.0710952 0.0944261 -0.0800222 
1 370 5.61792 77.3054 49.2244 -0.0480432 0.0529357 0.0713707 
1 371 83.5778 49.6076 16.2859 -0.0544509 -0.0495612 0.0330286 
1 372 35.3468 90.3017 68.0508 -0.0867935 -0.0847308 -0.00762265 
1 373 40.1376 29.19 19.8699 -0.036633 -0.070268 -0.0602711 
1 374 76.2583 20.9759 46.232 0.0513761 0.0677541 -0.0587707 
1 375 58.5191 88.2979 38.3767 0.11668 0.0606527 0.0561646 
1 376 47.43 72.1719 74.449 0.0810503 -0.0305624 0.0648509 
1 377 3.02343 44.0874 33.7756 0.0540687 -0.0908883 -0.0978971 
1 378 36.85 33.4137 17.9883 -0.054598 0.0406345 -0.108657 
1 379 38.0781 7.48154 68.4667 0.0487921 -0.0462099 0.000821372 
1 380 50.6664 87.0951 79.5002 0.0570026 0.0819459 -0.00802137 
1 381 56.1 39.6958 56.7568 0.0155939 -0.0233884 0.00640968 
1 382 69.1079 36.6691 97.1712 -0.104562 0.0684066 -0.03796 
1 383 83.6917 67.197 60.027 0.095156 -0.0298093 -0.0854738 
1 384 90.0516 88.6516 46.0613 0.0822311 0.0199855 0.0704216 
1 385 26.1623 14.977 44.3945 0.0627483 0.00340373 -0.092191 
1 386 28.5807 90.9591 89.9156 -0.0990198 0.0621887 0.0224503 
1 387 83.9831 65.2388 63.9274 0.0460024 0.109096 0.0814336 
1 388 88.74 61.4613 96.4984 -0.000125041 0.108907 -0.0544605 
1 389 29.2893 94.3541 35.1624 -0.100734 -0.10275 -0.104325 
1 390 27.1462 12.3079 87.3139 -0.0256743 -0.0963086 0.0928347 
1 391 34.9073 46.5473 7.44861 -0.0420013 0.0633946 0.0295336 
1 392 77.0136 71.0001 65.0311 0.0920887 -0.115678 -0.109108 
1 393 45.4837 43.5744 95.5349 -0.079155 -0.0229585 0.0114652 
1 394 3.31042 59.2966 23.7382 0.0946568 -0.0361555 -0.0865832 
1 395 42.5375 65.3434 33.1644 0.0660818 -0.0942862 0.082472 
1 396 50.5746 25.8962 73.9704 -0.0131179 -0.051215 -0.048641 
1 397 53.5749 75.3774 98.7303 -0.102217 -0.115493 -0.035617 
1 398 27.7915 67.4398 36.0195 0.116751 0.0920476 3.09387e-05 
1 399 57.356 13.1194 4.33772 0.0464544 0.0215341 0.0158435 
1 400 43.4726 65.2536 5.69461 0.0893543 0.0370329 -0.0906883 
1 401 99.0812 39.852 48.8347 0.00553251 -0.0532656 -0.0477534 
1 402 60.2268 90.0031 98.6279 -0.0893146 -0.0730155 0.10575 
1 403 71.1765 63.9669 91.7728 -0.0134213 -0.0276144 0.00840812 
1 404 26.9593 17.2013 31.0189 -0.0517812 0.106494 -0.0889657 
1 405 69.3836 79.4278 11.9336 0.0795237 -0.0723413 0.0259867 
1 406 59.7322 59.1658 2.92788 0.097546 0.0822909 -0.0322334 
1 407 19.971 67.8632 25.9738 -0.0721364 0.100538 -0.0613812 
1 408 16.7416 0.588541 18.0004 0.0250912 0.074199 -0.0283685 
1 409 33.088 38.2428 60.9749 -0.0880589 0.0715652 -0.0474749 
1 410 29.0514 84.3974 56.6358 -0.0653952 -0.0141818 0.107549 
1 411 70.7269 81.3803 90.3276 -0.0678209 -0.0276044 -0.0569076 
1 412 3.90975 7.90624 77.7971 -0.00762021 -0.106242 -0.108253 
1 413 72.0633 86.8971 79.6654 0.084532 0.0326217 0.0587953 
1 414 57.2963 96.1902 42.8444 0.047587 -0.0402833 -0.0646566 
1 415 31.493 7.37419 59.4869 -0.0650339 0.00342581 0.0459833 
1 416 55.9427 29.1481 92.944 -0.101567 0.0980324 -0.0174988 
1 417 9.30413 68.4428 21.4512 0.0192818 0.0129129 -0.0277537 
1 418 20.3873 23.1361 28.201 -0.00140148 0.0808418 0.066295 
1 419 39.912 84.9431 70.8507 0.105819 0.0981554 -0.0463318 
1 420 92.384 85.131 61.8462 0.0508389 -0.111793 -0.027295 
1 421 67.0175 37.2104 63.7499 0.0223225 -0.116497 0.0974986 
1 422 41.9791 5.65372 96.9552 0.0944368 -0.00747531 0.10884 
1 423 74.1451 30.9189 91.6763 -0.0277209 -0.0268377 0.0208357 
1 424 23.6238 98.4797 74.7271 -0.075753 0.0989905 0.0154238 
1 425 12.6374 19.6767 96.1795 0.0225481 -0.050975 0.0256382 
1 426 42.6035 26.6946 98.0053 0.0627344 0.00240889 -0.0450177 
1 427 65.0617 51.3459 84.1566 0.0129175 -0.0603719 -0.0146099 
1 428 96.5825 31.5248 9.73868 -0.0992763 -0.0581387 0.0251684 
1 429 32.6173 89.3504 90.1396 0.0847602 -0.0908386 0.0379746 
1 430 79.3426 32.981 84.7627 -0.0982764 -0.0194356 0.068322 
1 431 24.2953 21.598 75.8271 -0.0591038 -0.00294829 0.0421095 
1 432 57.3962 74.8975 67.9548 -0.000910805 -0.0560479 -0.000525899 
1 433 85.5338 37.7069 59.945 0.00295171 -0.112808 -0.0843843 
1 434 2.42107 47.87 19.0953 -0.00476488 -0.0903133 0.0175641 
1 435 49.3457 46.3793 68.4983 -0.10162 -0.0890949 0.0015691 
1 436 42.784 8.96899 43.4906 0.0484088 0.0317849 -0.0316993 
1 437 82.7227 95.686 0.0105121 0.0554206 0.0421859 0.116391 
1 438 80.1543 49.347 85.7338 -0.0294796 -0.0103222 0.00230857 
1 439 24.5023 47.6273 80.5323 -0.0989611 -0.11589 0.0506219 
1 440 21.9317 19.8362 46.53 0.0766879 0.00756887 0.0467261 
1 441 1.85541 78.2349 33.522 0.0399848 0.0417338 -0.0290659 
1 442 52.1572 65.0822 92.6538 0.0674717 -0.0230434 -0.0186809 
1 443 65.6385 84.0697 74.1511 -0.0528459 -0.0875365 0.110977 
1 444 19.263 32.0868 13.5405 0.0399457 0.0834982 -0.000313332 
1 445 57.6968 29.1448 19.3634 0.0823422 0.0233476 -0.0131382 
1 446 40.8891 47.3749 44.616 -0.0494804 -0.114296 0.0554857 
1 447 55.9226 56.3711 99.2502 0.0815976 0.0850908 -0.0157389 
1 448 34.3466 86.9785 52.4162 0.0223576 0.00807852 -0.004171 
1 449 30.2572 63.7881 57.0485 -0.012354 -0.0207194 -0.0827921 
1 450 34.8901 5.7419 11.0997 -0.0266462 0.104278 -0.080157 
1 451 21.5981 82.455 36.2936 0.01476 -0.0663035 -0.0337397 
1 452 39.4655 0.0220316 93.8299 -0.0041757 0.0309399 -0.0283178 
1 453 88.196 10.9272 37.0989 0.0650037 -0.0502642 0.0949222 
1 454 67.5068 56.1083 90.8874 0.1088 -0.107969 -0.0301284 
1 455 92.2812 41.8847 48.3992 -0.0906171 -0.0734058 0.0667878 
1 456 44.8027 24.9775 37.331 0.00532342 -0.0742649 0.0666994 
1 457 33.6463 42.9942 20.7988 -0.0842437 -0.0808669 -0.0416711 
1 458 94.4685 81.2766 61.7263 -0.0989783 0.0612601 0.0179508 
1 459 21.8504 53.1952 77.8363 0.10967 0.0757939 -0.00562842 
1 460 55.3749 75.7754 81.5388 -0.0545918 -0.0891509 -0.00735686 
1 461 69.1234 33.4602 63.5546 0.00572061 0.0806436 -0.0041194 
1 462 83.008 82.9545 31.4518 -0.0765843 0.100277 -0.012048 
1 463 65.1208 6.34429 40.421 0.109025 -0.0458244 -0.041328 
1 464 3.99995 80.5672 50.1832 0.0787361 -0.0352717 0.0951161 
1 465 31.1454 42.0573 96.9439 0.10852 0.0846372 0.0460835 
1 466 37.0394 20.5572 89.8001 -0.0463422 -0.00183906 0.0543912 
1 467 74.5937 9.05256 11.9597 0.084673 0.072913 0.0158203 
1 468 23.9286 15.2787 5.51258 -0.0663408 -0.0705163 -0.0412885 
1 469 39.2362 88.9109 51.4319 0.0446157 0.0918862 0.0822767 
1 470 36.4259 17.2434 15.4968 -0.0359947 -0.0546277 0.116036 
1 471 24.7161 10.1225 79.658 0.0514745 0.090593 0.00554931 
1 472 94.9229 88.3839 73.6916 0.106836 -0.0495942 -0.0564104 
1 473 73.6149 27.3411 16.7417 -0.0350817 -0.0805474 -0.027624 
1 474 85.3079 54.1997 10.184 0.0820607 -0.0491738 0.0242878 
1 475 5.04328 53.3875 91.2533 -0.0446464 0.0881189 0.10877 
1 476 9.57235 81.556 85.3384 -0.0313956 -0.0735866 0.0557449 
1 477 4.636 20.2245 12.6753 0.0141749 0.114676 0.0151322 
1 478 76.3229 15.9719 61.8821 0.0114329 -0.0923059 0.0630937 
1 479 78.657 32.0624 46.1628 0.097076 0.100586 0.0473517 
1 480 61.0993 40.5868 4.51823 0.0751092 0.0226879 0.0786381 
1 481 16.0342 60.4732 19.6185 0.0592451 0.0444303 0.111573 
1 482 4.12807 94.1401 69.0377 0.0407253 -0.0877798 -0.0193801 
1 483 62.6299 1.01202 21.9231 0.071857 0.0902919 0.0679461 
1 484 25.6969 10.0999 41.8459 -0.0891742 -0.0422673 -0.107661 
1 485 17.5541 83.5302 35.9486 0.0241482 0.0604355 -0.100793 