ITEM: TIMESTEP
100
ITEM: NUMBER OF ATOMS
50
ITEM: BOX BOUNDS pp pp pp
-5 5
-5 5
-5 5
ITEM: ATOMS id type x y z vx vy vz 
1 1 -4.79952 2.59448 -4.31324 0.0166506 0.00576956 -0.0167024 
2 1 4.43982 3.0104 -1.68728 -0.0298074 0.0235614 0.0257144 
3 1 -4.76281 0.0166709 -3.31325 -0.0383459 -0.0062771 0.0247306 
4 1 -1.93845 -2.869 3.55359 -0.0185154 -0.0205905 0.0143226 
5 1 -2.81839 1.00559 -1.31777 -0.0118563 -0.000553342 0.0283861 
6 1 -2.10054 -3.12016 0.376938 -0.00337687 -0.0472549 -0.00411398 
7 1 -2.38615 -0.745317 -4.18017 -0.0108498 -0.0105566 -0.0577084 
8 1 -2.26469 -4.02567 -3.56036 0.060997 0.0351723 -0.0514013 
9 1 -4.68183 -1.41817 2.82579 0.0253619 -0.0777593 -0.00212448 
10 1 -2.06009 4.48319 5.04016 -0.00369662 0.0193863 0.0175109 
11 1 -5.00591 -1.73072 -0.563044 -0.0172676 0.058396 -0.0320681 
12 1 0.319152 2.9067 -3.90409 0.0117598 0.00565071 0.0305719 
13 1 -2.57238 3.93126 2.5497 0.0187795 0.0324324 -0.0010889 
14 1 1.92716 4.18887 -2.14554 -0.016249 0.0385435 0.0642664 
15 1 5.12634 0.858534 0.23485 0.0925021 0.0310746 -0.0154904 
16 1 -4.68859 -4.99032 -3.11283 -0.0170906 -0.0602457 0.0205221 
17 1 -1.93776 0.963986 3.49691 -0.0585917 -0.00207612 -0.0161148 
18 1 -4.72113 -4.26547 0.429092 -0.0182691 0.00597918 -0.0644162 
19 1 3.21494 -2.63118 -1.82005 0.0575096 -0.0861061 -0.0306971 
20 1 -1.28169 1.17507 -3.88043 -0.0111304 -0.00705161 -0.0842908 
21 1 2.97039 -2.31057 5.90786 -0.0424658 0.00796448 0.0789246 
22 1 -2.98485 4.32044 -0.70819 0.0480186 -0.0215573 -0.0412898 
23 1 -3.97283 -3.83081 4.27384 -0.0159436 0.0198 0.0211239 
24 1 3.60449 -0.229927 4.55708 -0.0675457 0.00577189 0.00909622 
25 1 0.564711 -2.9522 4.84188 0.0216206 -0.0433813 0.00324503 
26 2 3.60699 0.196411 -3.42332 -0.0365895 -0.0513056 0.0581728 
27 2 -1.08202 4.61239 -3.20288 -0.0113993 -0.0152142 -0.0206903 
28 2 -4.09946 -2.98127 0.344787 0.0214495 0.0415784 0.0489063 
29 2 3.38705 -4.13584 -2.49743 0.0177116 0.0348679 -0.00926701 
30 2 -3.26864 0.919607 4.92759 -0.0411132 0.0685046 0.0131981 
31 2 -2.49157 -4.02172 -1.70679 -0.0294573 0.028394 0.0258929 
32 2 -3.38123 4.08344 -3.65313 0.0161703 -0.0105173 0.00929474 
33 2 3.81223 2.93618 -3.33296 0.0483051 -0.0201213 0.0173784 
34 2 -4.42617 0.0318598 1.24254 0.031586 -0.0328155 -0.0412134 
35 2 -1.9021 2.27715 3.05815 -0.0190256 -0.0721886 -0.0230329 
36 2 1.31678 -1.5557 -4.89056 0.0017978 -0.0138928 -0.0457601 
37 2 -3.47596 -2.87167 3.12031 0.0313322 -0.00391929 0.0322482 
38 2 -2.89651 2.71289 -1.38899 -0.0047334 0.0180312 -0.0249001 
39 2 3.71951 -0.879311 -1.06048 -0.00505129 -0.00866342 -0.00283568 
40 2 4.37434 -1.50154 4.1594 0.00782622 0.0137466 -0.0248209 
41 2 1.37697 3.81436 -3.26671 0.0884506 -0.0210548 -0.00462047 
42 2 -1.67239 -0.998247 4.30855 0.0163051 0.0384691 0.00458395 
43 2 -3.19642 4.33885 3.90151 0.0152941 -0.0140023 0.0115048 
44 2 -0.684406 2.04878 -2.77678 0.0212566 -0.000901461 0.0118529 
45 2 -4.57373 4.60176 -1.25855 -0.00292853 0.0101215 0.00456164 
46 2 -4.78945 1.40019 -1.26547 -0.0039663 0.007898 0.0173644 
47 2 -1.60937 -3.8072 4.7978 -0.0358099 0.0129708 0.0363519 
48 2 -3.75825 4.44225 1.06557 -0.0270369 0.0774484 0.0346891 
49 2 -4.35168 -3.77455 -4.29947 -0.0215052 0.00652717 -0.0464237 
50 2 -2.62835 0.263244 -2.74268 -0.0510666 -5.3432e-05 -0.00334383 
ITEM: TIMESTEP
200
ITEM: NUMBER OF ATOMS
50
ITEM: BOX BOUNDS pp pp pp
-5 5
-5 5
-5 5
ITEM: ATOMS id type x y z vx vy vz 
1 1 -4.34852 2.67332 -4.394 0.0693821 0.00813188 0.000853111 
2 1 4.47821 2.98912 -1.53347 0.029485 -0.0311733 0.00637623 
3 1 -5.17452 0.194016 -2.81583 -0.0401752 0.0361125 0.0639121 
4 1 -1.88447 -2.82069 3.76298 0.0323981 0.0184398 0.0206571 
5 1 -2.86514 1.33322 -1.61807 0.00495971 0.0396151 -0.0948559 
6 1 -2.59594 -3.55214 0.135263 -0.0872065 -0.0257616 -0.0251144 
7 1 -2.77693 -0.952709 -4.67054 -0.0698893 -0.0312938 -0.0151941 
8 1 -1.75672 -3.69968 -3.29099 0.038782 0.0208714 0.0775906 
9 1 -4.3762 -2.1079 2.64629 0.00993844 -0.0346758 -0.0529765 
10 1 -2.24698 4.25776 -4.65821 -0.0334329 -0.0408801 0.0374176 
11 1 5.22807 -1.08417 -0.42006 0.058467 0.0603593 0.0650536 
12 1 0.383381 3.24076 -3.2863 0.00102121 0.0499666 0.0721908 
13 1 -2.68365 4.04152 2.43194 -0.0373889 -0.0043203 -0.018218 
14 1 1.95172 4.7022 -1.7071 0.0195016 0.0514584 -0.000995821 
15 1 -4.22547 1.22052 0.308988 0.0436908 0.028383 0.0554082 
16 1 -4.74232 -5.30754 -2.92443 -0.00463169 0.00212704 -0.00268913 
17 1 -2.78094 0.566392 3.46775 -0.0911376 -0.0313431 -0.0124401 
18 1 -4.66108 -4.43645 -0.139649 0.0336972 -0.0198416 -0.0257878 
19 1 3.84673 -3.04518 -1.51638 0.0715655 0.00772299 0.0681646 
20 1 -1.65802 1.32639 -4.27358 -0.0496556 0.0330981 -0.00113703 
21 1 2.55296 -2.04957 -3.67452 -0.0318384 0.0410584 0.0230919 
22 1 -2.69909 4.16581 -1.5004 0.0156556 0.00801383 -0.106948 
23 1 -4.15697 -3.92214 4.23967 -0.0125664 -0.0425262 -0.00267572 
24 1 2.93768 -0.294891 4.76299 -0.051513 -0.0299069 0.0249659 
25 1 0.6188 -3.22092 4.87145 -0.00583273 -0.0175649 -0.000194996 
26 2 3.42334 -0.587291 -3.47203 -0.0122093 -0.095525 -0.0588266 
27 2 -0.959163 4.60087 -3.73978 0.0356311 0.00141354 -0.0572409 
28 2 -3.93556 -2.462 0.593082 0.00548179 0.0270177 -0.00275281 
29 2 3.35906 -4.05285 -2.84222 -0.032083 -0.0149164 -0.0418885 
30 2 -3.60947 1.51626 5.09163 -0.0140608 0.0439049 0.00534938 
31 2 -2.64435 -3.70131 -1.27771 0.00029704 0.0117981 0.04217 
32 2 -3.5463 3.94918 -3.73894 -0.0254607 -0.0114178 -0.00811664 
33 2 4.71356 2.86286 -3.10276 0.104837 -0.00129227 0.0244107 
34 2 -4.10394 -0.384427 0.921519 0.0248396 -0.00623221 -0.0404363 
35 2 -1.98869 2.04866 2.60734 -0.0152664 -0.00793698 -0.0493542 
36 2 1.60997 -2.0326 -5.15054 0.049581 -0.0675794 0.000617317 
37 2 -3.33895 -2.77486 3.32381 0.00208606 0.0148574 0.0206777 
38 2 -2.78779 2.70979 -1.24681 0.0243946 -0.0197026 0.0432223 
39 2 3.71981 -1.51293 -1.09175 0.00789759 -0.108809 -0.00615451 
40 2 4.36897 -1.18906 3.92465 -0.00389457 0.0443717 -0.0270183 
41 2 2.00531 3.62045 -3.33892 0.0310425 -0.00733729 0.0213724 
42 2 -1.61141 -0.51136 4.35978 -0.0137474 0.0624225 0.00192481 
43 2 -3.00327 4.3972 3.9013 0.0210447 0.0199835 -0.0117556 
44 2 -0.35586 1.79804 -3.1223 0.0230106 -0.0386085 -0.0721813 
45 2 -4.94673 4.63929 -1.22765 -0.0568978 -0.00700923 -0.00300542 
46 2 -4.89506 1.44688 -1.12636 -0.0141978 -0.00561524 0.0111721 
47 2 -1.76112 -3.57137 5.04646 0.00814901 0.0431725 0.0186699 
48 2 -3.73705 5.17163 1.37854 0.0271445 0.0608302 0.0164645 
49 2 -4.65581 -3.68644 -4.24445 -0.0287329 0.00767803 0.033832 
50 2 -3.18856 -0.0236459 -2.88824 -0.062162 -0.041539 -0.0176059 
ITEM: TIMESTEP
300
ITEM: NUMBER OF ATOMS
50
ITEM: BOX BOUNDS pp pp pp
-5 5
-5 5
-5 5
ITEM: ATOMS id type x y z vx vy vz 
1 1 -4.13356 2.79684 -4.29608 -0.0272666 0.00092415 0.00225459 
2 1 4.83183 2.69563 -1.44802 0.0327168 -0.00797033 0.02455 
3 1 4.50341 0.457322 -2.2664 -0.0168033 0.0022435 0.0414534 
4 1 -1.74609 -2.63026 3.86022 -0.0170945 0.0194763 0.0147701 
5 1 -3.03815 1.49346 -2.5522 -0.0484563 -0.0018406 -0.0477174 
6 1 -2.99344 -3.35409 0.440891 0.0452829 0.0466288 0.0355975 
7 1 -3.56518 -1.25287 -4.54078 -0.0845542 -0.0227988 0.0284565 
8 1 -1.4954 -3.54067 -2.69334 0.00889342 0.0195564 0.0383876 
9 1 -4.3696 -2.23252 1.90918 0.00217469 -0.00668497 -0.042817 
10 1 -2.16778 4.22369 -4.70386 0.071879 0.0397201 -0.0626464 
11 1 -4.40789 -1.00787 -0.0504629 0.0125694 -0.0156951 -0.00355731 
12 1 0.349037 3.55989 -2.92622 -0.00290212 0.011925 -0.00553738 
13 1 -3.07952 3.97725 2.26843 -0.0278489 -0.00397929 -0.0077859 
14 1 2.4699 5.12971 -2.14134 0.0532485 -0.01561 -0.0428806 
15 1 -3.71045 1.61362 0.82047 0.0713329 0.0732361 0.0302233 
16 1 -5.11024 4.99025 -3.20094 -0.0551498 0.0454297 -0.0364212 
17 1 -3.45166 0.58615 3.29043 -0.0388722 0.0254316 -0.00777577 
18 1 -4.48635 -4.98006 -0.0248049 -0.000259944 -0.108146 0.0312192 
19 1 4.54261 -3.46645 -1.41413 0.0616611 -0.0627256 -0.0367318 
20 1 -1.92193 1.43299 -4.47344 0.0168003 -0.0306975 -0.0726562 
21 1 2.3445 -2.1675 -3.28775 -0.00428229 -0.0700573 0.0523 
22 1 -2.60468 4.12957 -2.41687 0.00497429 -0.0125855 -0.0373758 
23 1 -4.07237 -4.33143 4.45144 0.0293464 -0.0174373 0.0344764 
24 1 2.78597 -0.788938 4.73124 0.0214258 -0.0644392 -0.0464416 
25 1 0.564832 -3.45501 4.93296 -0.0018207 -0.0304773 0.0201853 
26 2 3.43073 -1.07961 -3.9914 0.0122264 -0.0015168 -0.0168339 
27 2 -0.613341 4.4686 -3.92959 0.02164 -0.0222119 0.01576 
28 2 -4.16368 -2.45759 0.443352 -0.0564559 0.0103313 -0.0209088 
29 2 2.83231 -3.94744 -2.77304 -0.0377345 0.0762399 0.00965413 
30 2 -3.30399 1.5792 -5.11256 0.0350055 0.0198726 -0.0203797 
31 2 -2.55592 -4.02815 -1.45975 0.0118848 -0.0622011 -0.0465352 
32 2 -3.28945 4.25635 -3.58086 0.0477475 0.0550481 0.0246026 
33 2 5.41969 2.5683 -2.8037 0.0568708 -0.0613811 0.0207562 
34 2 -3.72992 0.283176 0.981277 0.0463779 0.0638786 0.053531 
35 2 -2.50061 1.99796 2.13518 -0.0932407 0.00687225 -0.0485645 
36 2 1.93067 -2.65381 5.04362 -0.00258197 -0.054089 0.0284813 
37 2 -3.34289 -2.55658 3.61032 -0.0089205 0.0297947 0.0214062 
38 2 -2.53005 2.70624 -0.918916 0.0135965 0.00868444 -0.00186101 
39 2 3.88908 -2.00479 -0.944982 0.0204697 0.00181042 0.0261748 
40 2 4.37034 -0.665839 3.53725 0.00442189 0.059378 -0.0494599 
41 2 1.9536 3.63544 -2.73892 -0.0325553 0.0105654 0.0908755 
42 2 -2.16274 0.0266903 4.46711 -0.078357 0.0236574 0.012244 
43 2 -2.89683 4.60564 3.86339 -0.00402365 0.0156593 0.00592241 
44 2 -0.461235 1.62563 -3.91514 -0.0440436 0.00697752 -0.0715225 
45 2 -5.47058 4.62811 -1.2652 -0.0405607 0.017776 -6.30085e-05 
46 2 -5.01818 1.13742 -0.901976 -0.0160942 -0.0443801 0.0246367 
47 2 -1.42199 -2.92976 -4.44396 0.0598163 0.0745941 0.0690778 
48 2 -3.41267 -4.5247 1.28205 0.0236204 -0.0136993 -0.0220374 
49 2 -4.65684 -3.77906 -4.04311 0.01835 -0.0296847 0.0091012 
50 2 -3.83779 -0.282134 -3.06756 -0.0644544 -0.00540272 -0.0175873 
ITEM: TIMESTEP
400
ITEM: NUMBER OF ATOMS
50
ITEM: BOX BOUNDS pp pp pp
-5 5
-5 5
-5 5
ITEM: ATOMS id type x y z vx vy vz 
1 1 -4.36033 2.83171 -4.39976 -0.0132861 0.0207085 0.00277313 
2 1 5.09732 2.61702 -1.23992 0.0197969 -0.032055 -0.0112828 
3 1 4.39762 0.0907464 -2.15067 -0.0178256 -0.0649547 -0.0190418 
4 1 -2.0856 -2.25424 4.27415 -0.0393494 0.0680553 0.0637792 
5 1 -3.30931 1.01303 -2.75405 0.0175293 -0.0970961 -0.0178429 
6 1 -2.43186 -3.19209 0.518314 0.0308298 -0.0179631 -0.00730806 
7 1 -4.45706 -1.33351 -4.28734 -0.0930502 0.00481492 0.0180152 
8 1 -1.56613 -3.35726 -2.58156 -0.0167087 0.0105043 -0.0171236 
9 1 -4.50343 -2.23096 2.17527 -0.0158928 0.0128826 0.0592795 
10 1 -1.36421 4.56732 -5.23159 0.053589 0.00593308 -0.0243434 
11 1 -4.53341 -0.751086 -0.28664 -0.0344413 0.0376107 -0.014917 
12 1 0.362919 3.46599 -3.10867 0.00438347 -0.0307624 -0.0147714 
13 1 -3.12965 4.05312 2.46484 0.012246 0.0313265 0.0531676 
14 1 2.81582 -5.44152 -2.1632 0.0225672 -0.0400356 0.0377717 
15 1 -2.94052 2.10495 0.431431 0.0841814 -0.00265054 -0.0827636 
16 1 4.44316 5.24388 -3.55653 -0.0357556 0.0165154 -0.0349473 
17 1 -3.7377 0.847289 3.23028 -0.0378888 0.0193513 -0.0200839 
18 1 -4.37968 -5.84103 0.306238 0.0179023 -0.028373 0.0321465 
19 1 5.00018 -3.49073 -1.52304 0.0283147 0.043802 0.0268977 
20 1 -1.68476 0.907513 -5.4887 0.0128715 -0.0482939 -0.095361 
21 1 2.37097 -2.13198 -3.22543 0.00182295 0.0822196 -0.040641 
22 1 -2.40676 3.99627 -2.0763 0.0157922 -0.0138879 0.0370515 
23 1 -3.67403 -4.25136 4.80936 0.0532077 0.0122258 0.0350187 
24 1 3.29502 -1.5163 4.20585 0.0702801 -0.0652134 -0.0386793 
25 1 0.480106 -3.75601 5.36239 -0.023393 -0.0250901 0.067995 
26 2 3.45742 -1.02186 -3.96057 -0.00691222 -0.00241521 -0.00248761 
27 2 -0.527963 4.49645 -3.82369 0.0104859 0.0410566 -0.0100741 
28 2 -4.2077 -2.46797 0.414932 0.0652962 -0.00692677 0.0319428 
29 2 2.97396 -3.74386 -2.44481 0.0553573 -0.0906862 0.0608011 
30 2 -3.38017 2.38193 4.79876 -0.0059712 0.0697448 -0.0278592 
31 2 -2.37729 -4.54993 -1.80151 0.0281513 -0.0191376 -0.00887893 
32 2 -3.05238 4.52284 -3.92146 0.0146424 -0.00456233 -0.0512926 
33 2 -4.33314 2.21243 -2.73875 -0.0351466 0.0185243 0.00184627 
34 2 -3.46424 0.155217 1.46845 0.0217664 -0.0458322 0.0348954 
35 2 -3.38439 2.7382 2.27566 -0.0828072 0.105612 0.0435197 
36 2 1.73125 -3.03783 -4.77646 -0.0105848 -0.0189652 0.0066094 
37 2 -3.51025 -2.40943 3.7162 -0.0338423 -0.0159593 -0.00155523 
38 2 -2.68229 2.84019 -1.08931 -0.0455518 0.0105091 -0.00265077 
39 2 4.12652 -1.94003 -0.994263 0.0243332 0.0256317 -0.0434745 
40 2 4.40256 -0.15993 3.11654 0.000200558 0.0299156 -0.0249079 
41 2 1.50242 3.75003 -1.85024 -0.0591287 0.00455423 0.0715943 
42 2 -2.83133 -0.339429 4.39995 -0.0568641 -0.0536705 -0.0161108 
43 2 -2.92866 4.74232 3.80983 0.0147461 0.0281809 -0.0245562 
44 2 -0.833776 1.88349 -4.41134 -0.026248 0.0323767 -0.0378196 
45 2 4.36017 4.82406 -1.37171 0.0130291 0.000199028 -0.0220455 
46 2 4.80707 0.835603 -0.695473 -0.00951907 -0.0161131 0.0116949 
47 2 -0.755373 -2.45168 -3.87082 0.0589737 0.0109032 0.0458175 
48 2 -3.31275 -4.94756 1.01767 0.00308127 -0.0577387 -0.0302313 
49 2 -4.58459 -3.78068 -4.09941 -0.0174825 0.0491298 -0.00989269 
50 2 -4.39821 -0.235356 -3.13142 -0.0377282 0.00609492 0.0103266 
ITEM: TIMESTEP
500
ITEM: NUMBER OF ATOMS
50
ITEM: BOX BOUNDS pp pp pp
-5 5
-5 5
-5 5
ITEM: ATOMS id type x y z vx vy vz 
1 1 -4.18914 3.1252 -4.18138 0.0588424 0.0302199 0.0113361 
2 1 -4.73822 2.11813 -1.48434 0.0170397 -0.0504406 -0.0157455 
3 1 3.96958 -0.51539 -2.33688 -0.046412 -0.0323532 -0.00760664 
4 1 -2.62535 -1.51864 4.86741 -0.0572309 0.0215633 0.0562703 
5 1 -3.1884 0.29853 -3.06342 0.0131734 -0.0420806 -0.0405928 
6 1 -2.52898 -3.61298 0.426932 -0.030166 -0.0717482 -0.0132234 
7 1 -5.1727 -1.34793 -4.12705 -0.00582136 -0.0201746 0.0190587 
8 1 -1.7097 -3.39852 -2.85102 -0.01158 -0.0126319 -0.0227015 
9 1 -4.27083 -1.89091 2.58061 0.0742983 0.0582223 0.00404341 
10 1 -1.32739 4.24448 4.77096 -0.0289879 -0.0559835 0.0228913 
11 1 -4.82184 -0.576583 -0.0274467 -0.0145347 0.0076405 0.0490465 
12 1 0.286362 3.23675 -3.17829 -0.0149608 -0.0042399 0.000537996 
13 1 -3.07634 4.3987 2.73174 -0.0175668 0.010137 -0.00358886 
14 1 2.88018 4.30225 -1.39694 0.00137587 -0.01483 0.0903547 
15 1 -2.08749 1.88657 -0.121869 0.0736952 -0.0282395 -0.0335005 
16 1 4.10965 -4.29705 -3.68835 -0.0347099 0.073196 0.00989482 
17 1 -4.33367 0.916835 2.86115 -0.0674459 -0.000301356 -0.0434536 
18 1 -4.37231 4.03124 0.519423 -0.012286 -0.0248351 0.00302906 
19 1 -5.02625 -3.07888 -1.16552 -0.0224365 0.0292575 0.0282665 
20 1 -1.65366 0.711414 3.9264 -0.0146338 0.015276 -0.0294028 
21 1 2.264 -1.74442 -3.65658 -0.0512148 -0.0138463 -0.0506799 
22 1 -2.41708 3.97368 -2.02227 -0.0273425 0.0213322 -0.00534078 
23 1 -3.25681 -4.17575 5.13936 0.0126258 0.0235366 0.017851 
24 1 3.84607 -1.93674 3.93126 0.0307311 -0.0242292 -0.0179129 
25 1 0.388472 -3.75501 -3.79529 0.0365489 0.0365821 0.0779727 
26 2 3.51443 -1.10134 -4.19627 -0.000944956 0.00305385 -0.0419765 
27 2 -0.183826 4.97811 -4.07948 0.0302131 0.00605518 -0.0345268 
28 2 -3.42266 -2.52165 0.789684 0.0582501 -0.0012102 0.0317189 
29 2 3.29276 -4.41283 -2.39081 0.00526995 -0.0379274 -0.0343971 
30 2 -3.43994 2.47805 4.32166 -0.017847 -0.0257805 -0.048056 
31 2 -2.02017 -4.32611 -1.70712 0.0349239 0.0358711 0.0185899 
32 2 -3.00064 4.51154 -4.12976 -0.000398001 -0.00424751 0.0182364 
33 2 -4.76275 2.41699 -3.0295 -0.0440571 0.0145866 -0.0649681 
34 2 -3.22356 -0.10487 1.75889 0.0159038 -0.00114926 0.0284521 
35 2 -4.41192 3.16481 2.14548 -0.112222 0.0277952 -0.0533901 
36 2 1.84021 -3.12159 -4.666 0.0264705 0.00140114 0.0230216 
37 2 -3.9664 -2.84474 3.70752 -0.0570098 -0.0437606 0.0113605 
38 2 -3.27561 2.79876 -0.892044 -0.0498355 -0.0179083 0.0246324 
39 2 4.55444 -1.5286 -1.54991 0.0508326 0.0182294 -0.0344579 
40 2 4.42464 -0.187029 3.07395 0.00814199 -0.0386863 0.00881873 
41 2 0.989513 3.74149 -1.49889 -0.0379031 -0.00758969 -0.00072614 
42 2 -3.11495 -0.404258 4.37604 -0.0159637 0.0634885 0.00237791 
43 2 -2.26684 5.56078 3.80488 0.114874 0.0923776 0.01568 
44 2 -0.991128 2.06853 -4.85163 -0.00138516 0.0110377 -0.047622 
45 2 4.96823 4.34976 -1.34672 0.0863673 -0.0781172 0.0414754 
46 2 4.8096 0.786869 -0.758697 0.00289768 0.00635448 -0.0138952 
47 2 -0.474636 -2.60796 -3.42876 -0.00648487 -0.0200538 0.049027 
48 2 -2.96293 -5.21707 0.823436 0.0694925 0.0117632 -0.000779013 
49 2 -4.89038 -3.06083 -4.14668 -0.033119 0.0774162 0.00320868 
50 2 -4.43806 -0.323798 -3.04641 0.0125314 -0.0240286 -0.00860888 
