ITEM: TIMESTEP
100
ITEM: NUMBER OF ATOMS
50
ITEM: BOX BOUNDS pp pp pp
-5 5
-5 5
-5 5
ITEM: ATOMS id type x y z vx vy vz 
1 1 4.46939 1.07388 -0.695402 -0.0371737 -0.0100284 0.0322992 
2 1 0.859244 -4.54928 2.14051 -0.081637 -0.0976389 -0.0318167 
3 1 0.944921 -2.46767 0.265535 -0.0826899 0.0408315 0.0510816 
4 1 -2.54846 -3.60006 1.22749 0.0186463 0.00821242 -0.0289004 
5 1 3.41567 -3.46852 -2.08351 -0.0261779 -0.0216972 -0.00970662 
6 1 -0.0920239 -3.77817 4.47027 0.0110651 0.0884826 0.0115456 
7 1 3.5833 -3.21944 1.46965 -0.0665958 0.0355242 0.058024 
8 1 2.32287 2.25584 -2.73429 -0.032312 -0.0400028 -0.048056 
9 1 -0.10202 -3.01153 -3.13634 0.0554183 0.0244612 -0.0376443 
10 1 5.29174 -1.13617 4.13859 0.0647699 0.0709054 0.023636 
11 1 -2.63285 4.66794 -2.31057 -0.0175007 0.0151068 -0.0705127 
12 1 -2.33079 0.753116 3.02006 -0.0635879 -0.0396504 0.0188743 
13 1 5.05707 4.10764 -0.659951 0.0115651 -0.0283089 -0.0521199 
14 1 -3.98148 -3.29095 3.2322 0.0485937 -0.005554 0.0268113 
15 1 -3.4801 2.9655 1.88819 0.0266001 0.0333817 -0.0476913 
16 1 -1.67871 2.23207 -4.87303 0.0938257 -0.0562507 0.00122971 
17 1 2.02283 0.0543979 -0.494391 -0.00146027 0.0187769 -0.00906159 
18 1 -3.75718 2.67304 -2.91744 -0.00622107 -0.0289363 -0.033894 
19 1 -0.909895 4.10446 3.15204 -0.0196525 0.00816226 0.0397544 
20 1 -4.57197 -1.25345 1.80168 -0.00209299 -0.0260905 0.0278155 
21 1 2.45293 -2.0499 -5.17964 0.0431215 0.0179147 -0.0541952 
22 1 -0.983394 -1.57863 3.49598 0.0603578 0.0017047 0.0167975 
23 1 -4.87689 1.96914 4.34077 -0.0922136 0.0515209 0.00513895 
24 1 -4.45301 -3.2712 -0.811634 0.0311678 0.0114706 -0.0492141 
25 1 2.73944 0.65452 -4.26385 -0.011153 8.32166e-06 0.0236419 
26 2 4.71225 -2.85488 2.99954 0.0337039 -0.0547831 -0.0241336 
27 2 -4.79068 -3.26948 -2.44521 -0.0352693 0.0119174 -0.0117642 
28 2 -0.519932 -2.41073 5.25367 -0.00416374 0.00147417 0.0376493 
29 2 -1.35126 0.342849 4.37391 -0.0583179 0.0492092 0.0523892 
30 2 1.79116 -1.92624 3.5156 -0.0187462 0.00323665 -0.0230494 
31 2 3.5867 -4.21234 -0.271256 -0.0149289 -0.0718953 -0.0340368 
32 2 -2.37786 1.94563 -2.76301 0.0281647 0.00882182 0.0267307 
33 2 3.90938 1.38824 4.91936 0.00724761 -0.0452986 0.0236118 
34 2 -0.468314 5.13453 1.4233 0.0405609 0.0481355 0.0116755 
35 2 -3.06564 -4.52554 2.42749 0.0638888 0.0460073 0.00518167 
36 2 1.19107 -0.952034 0.632133 0.00952261 0.0030427 -0.00704856 
37 2 5.18198 -2.06523 0.316747 0.0241994 -0.0460016 -0.00474105 
38 2 0.0315597 4.54992 4.41166 0.0210176 -0.0157571 0.0137269 
39 2 -1.0571 -5.07728 -2.25331 0.0113444 -0.0548268 -0.0330793 
40 2 2.12104 -4.02132 1.33385 -0.0706951 0.0157701 0.0541866 
41 2 1.70364 -2.90825 -2.44546 0.0660175 0.00908117 0.0304853 
42 2 -5.08688 2.84745 -0.314839 -0.0433153 -0.0177766 -0.0262105 
43 2 -4.37629 4.58375 -1.94886 0.0121735 -0.0114142 -0.0159351 
44 2 -1.99972 -2.52699 3.04799 -0.0117348 -0.0401454 -0.0100546 
45 2 3.37608 -0.94923 -5.06318 0.0213991 0.00653274 -0.0639548 
46 2 -1.74235 2.58995 3.34333 0.0408653 0.0116155 0.00266302 
47 2 -3.25246 -3.52221 -0.202241 -0.0610172 0.00624164 0.101662 
48 2 -3.84436 1.32351 2.94383 -0.0153671 -0.002266 0.0370347 
49 2 1.79851 1.90228 -1.33143 -0.00175627 0.0573922 0.0507756 
50 2 2.26439 0.265079 -2.64506 0.0305434 0.00938064 -0.0576013 
ITEM: TIMESTEP
200
ITEM: NUMBER OF ATOMS
50
ITEM: BOX BOUNDS pp pp pp
-5 5
-5 5
-5 5
ITEM: ATOMS id type x y z vx vy vz 
1 1 4.14562 1.1357 -0.379757 -0.0508716 -0.0383064 0.0302715 
2 1 0.864282 -5.37964 1.89311 0.0336146 -0.0512923 -0.0209049 
3 1 0.318776 -2.21824 0.941647 -0.0337113 0.0118879 0.0875008 
4 1 -2.02608 -3.67133 1.32003 0.0706333 -0.0250005 0.0442672 
5 1 3.2562 -3.73118 -2.00447 0.00782258 -0.032924 0.025989 
6 1 0.0745171 -3.42165 4.36881 0.0300419 -0.037014 -0.0396448 
7 1 2.90114 -3.07256 1.98199 -0.0679673 0.00218177 0.047211 
8 1 1.85374 1.91286 -2.63515 -0.0460233 -0.0255395 0.0536251 
9 1 0.646785 -2.72861 -3.18855 0.0942999 0.0315517 0.0312425 
10 1 -4.53807 -0.278156 4.72306 -0.025102 0.0984502 0.0738955 
11 1 -2.61393 4.96698 -2.84375 0.0235594 0.0227669 -0.0419837 
12 1 -2.74672 0.673192 3.40437 -0.0217293 0.024895 0.0452942 
13 1 -5.15716 4.1765 -1.0456 -0.0435824 0.00711747 -0.0295582 
14 1 -3.16423 -3.6431 3.42858 0.0795411 -0.0256786 0.00971667 
15 1 -3.16221 3.30494 1.60408 0.0384506 0.0434185 -0.00989162 
16 1 -0.756815 1.58614 -4.93746 0.0755492 -0.052341 -0.00964261 
17 1 1.67444 0.298588 -0.71048 -0.0564003 0.0261016 -0.02428 
18 1 -3.75755 2.30019 -3.05686 0.00689537 -0.0313713 0.00223194 
19 1 -1.29711 4.20857 3.57829 -0.0434086 0.0372901 0.0472176 
20 1 -4.64552 -1.81699 1.69066 -0.00107892 -0.0856662 0.000199157 
21 1 2.79955 -1.94857 4.15113 0.0289734 0.00473045 -0.0848121 
22 1 -0.460475 -1.41836 3.79842 0.0355056 0.0333808 0.0269953 
23 1 -5.61711 2.32453 4.10131 -0.0565477 0.0103386 -0.037579 
24 1 -4.34174 -3.05681 -1.17566 -0.000448215 0.0266655 0.00102555 
25 1 2.99193 0.0676827 -4.53498 0.0602984 -0.0860015 -0.0607991 
26 2 4.93759 -2.97064 2.70126 0.0123676 0.0141598 -0.0193772 
27 2 -5.34822 -2.97643 -2.51747 -0.0539143 0.0297209 0.00353822 
28 2 -0.413715 -2.44719 -4.38858 0.0265933 0.0013631 0.0241221 
29 2 -2.04552 0.644147 4.72344 -0.0702572 -0.000911606 0.0232265 
30 2 1.23486 -2.07566 3.36122 -0.0808993 -0.00811587 0.0224176 
31 2 3.73582 -4.86893 -0.876135 0.0325914 -0.0616053 -0.0782895 
32 2 -2.34502 2.19137 -2.78884 -0.00969974 0.0200749 -0.024188 
33 2 4.01048 1.34533 5.35441 0.0283182 0.0426338 0.0435099 
34 2 -0.800751 -4.36639 1.38449 -0.0577316 0.0477659 -0.0226929 
35 2 -2.65804 -4.73257 2.56438 0.0265381 -0.103201 0.0348053 
36 2 1.37132 -0.887261 0.26321 0.0149006 0.00542323 -0.0548692 
37 2 -5.0385 -1.96236 0.434002 -0.0619479 0.0511057 -0.026536 
38 2 0.125402 4.74983 4.28261 -0.00229292 0.0529955 -0.0372638 
39 2 -1.17166 4.58367 -2.69497 -0.0242926 -0.00816455 -0.0517505 
40 2 1.45897 -3.66945 1.9793 -0.0430555 0.027381 0.0482491 
41 2 2.09249 -2.83699 -2.30989 -0.0124827 0.0141817 -0.0111322 
42 2 4.61838 2.30175 -0.495332 0.0138275 0.00741127 -0.0221817 
43 2 -3.83823 4.14694 -2.38311 0.0581427 -0.0601146 -0.0527429 
44 2 -2.02542 -2.36002 3.02893 0.0176291 0.0704433 0.0141737 
45 2 4.00961 -0.900742 4.42502 0.0798156 -0.0103872 -0.0456358 
46 2 -1.46131 2.77185 3.35474 0.0140071 0.00141948 -0.0043907 
47 2 -3.47005 -3.88579 0.426862 -0.00975745 -0.0588466 0.000215365 
48 2 -4.18458 1.29482 3.32683 -0.0535457 -0.00378477 0.0411213 
49 2 1.93866 2.27343 -0.890418 0.0194553 -0.00325537 0.0214755 
50 2 2.52072 0.554612 -2.99723 -0.00262403 0.0426655 0.00660857 
ITEM: TIMESTEP
300
ITEM: NUMBER OF ATOMS
50
ITEM: BOX BOUNDS pp pp pp
-5 5
-5 5
-5 5
ITEM: ATOMS id type x y z vx vy vz 
1 1 3.64457 0.807806 -0.157938 -0.0398528 -0.0145178 0.00640367 
2 1 0.908636 4.58139 1.76219 -0.0338898 0.0406231 -0.00546205 
3 1 0.247663 -2.25878 1.89379 -0.00341379 -0.0234772 0.0933778 
4 1 -2.18595 -3.75384 1.51562 -0.0239854 -0.0119153 -0.0428464 
5 1 3.24353 -3.73306 -1.8468 -0.0125237 0.0395308 -0.00152704 
6 1 0.565816 -3.5703 3.94921 0.0675957 0.0474116 -0.0314465 
7 1 2.42078 -3.24733 2.04246 -0.00310874 -0.0426162 -0.0468074 
8 1 1.64006 1.99871 -2.19517 0.00740281 0.0463708 0.00922937 
9 1 1.03783 -2.26593 -3.23175 -0.0147191 0.0593526 -0.0405096 
10 1 -4.62498 0.814274 5.29356 0.0400024 0.0999952 0.0330364 
11 1 -2.56712 4.92342 -3.15716 -0.0171153 -0.0344487 -0.0181416 
12 1 -2.99521 1.19617 3.62792 -0.0231408 0.0720433 0.0114374 
13 1 4.94716 3.63097 -1.373 0.0344602 -0.0598675 -0.0441463 
14 1 -2.63071 -3.56522 3.64317 0.0269146 0.0422225 0.0572216 
15 1 -2.69033 3.9404 1.65155 0.0489685 0.0619759 0.00452191 
16 1 -0.483023 1.23524 -5.05244 -0.0226207 -0.0102922 -0.0074908 
17 1 1.08981 0.400495 -0.771861 -0.0576684 -0.014399 0.0161387 
18 1 -3.76681 2.25935 -2.97902 0.00920779 0.0165494 0.0095512 
19 1 -1.44672 4.30262 4.06161 0.030314 -0.0483177 0.0583455 
20 1 -4.53092 -2.51659 1.47821 0.00241307 -0.0479251 -0.0475909 
21 1 3.20811 -1.80486 3.45958 0.0764019 0.0356914 -0.0394623 
22 1 -0.457364 -1.16626 4.18132 -0.0562029 0.0113239 0.0613123 
23 1 4.0466 2.18786 3.8543 -0.015265 -0.0247975 -0.00888057 
24 1 -4.56254 -2.76457 -0.953039 -0.0464615 0.0319219 0.02298 
25 1 3.47884 -0.377907 -4.65405 0.0236809 -0.0172194 0.0330789 
26 2 4.7681 -3.10415 2.85744 -0.0439443 -0.0355883 0.0251714 
27 2 4.48738 -2.77198 -2.30837 0.0285457 0.0144616 0.0348366 
28 2 0.0653629 -2.45877 -4.24588 0.0537399 -0.000417672 0.0144751 
29 2 -2.45325 0.48275 5.05701 -0.0221695 -0.0247407 0.0206229 
30 2 0.714816 -1.89705 3.73247 0.0135059 0.0210753 -0.000311443 
31 2 3.70438 -5.13892 -1.60938 -0.0101471 -0.0348751 -0.0590588 
32 2 -2.15311 1.96435 -3.10729 0.0381829 -0.0559433 -0.032271 
33 2 4.45127 1.74399 -4.42109 0.0365739 0.0417496 0.0266332 
34 2 -0.443007 -4.24325 0.996322 0.0386606 -0.000363184 -0.0426295 
35 2 -2.6133 -5.66432 3.04866 -0.0320725 -0.0230333 0.0412636 
36 2 1.3524 -0.873288 -0.155887 -0.0158461 -0.000229051 -0.0218429 
37 2 4.40429 -1.42975 -0.0398832 -0.0287127 0.042449 -0.0333148 
38 2 -0.120549 5.06554 3.76006 -0.0550247 -0.021974 -0.0597914 
39 2 -1.0557 4.72563 -3.28271 0.0383329 0.030503 -0.0691281 
40 2 1.17814 -3.7221 2.19029 -0.0168598 -0.019588 0.0206967 
41 2 2.14155 -2.91158 -2.19867 0.019703 -0.0280896 0.0359176 
42 2 4.94257 2.45789 -0.729755 0.0335393 -0.0220541 -0.0126265 
43 2 -3.76631 3.78846 -2.85128 -0.0356415 -0.00227162 -0.0392531 
44 2 -1.74562 -1.86086 3.1362 0.0336641 0.0117121 0.000600118 
45 2 4.41656 -0.998383 4.18195 -0.00863496 0.00110748 0.00581097 
46 2 -1.33066 2.54993 3.35593 0.0199874 -0.0552185 0.015591 
47 2 -3.50008 -4.29394 0.290578 0.00252025 -0.0143128 -0.000969661 
48 2 -4.73033 1.31439 3.71902 -0.0345602 0.0112302 0.0194448 
49 2 2.00246 1.78049 -0.755034 -0.00289973 -0.0841313 0.0285707 
50 2 2.24045 0.728843 -2.92145 -0.0478365 -0.00667673 -0.000760793 
ITEM: TIMESTEP
400
ITEM: NUMBER OF ATOMS
50
ITEM: BOX BOUNDS pp pp pp
-5 5
-5 5
-5 5
ITEM: ATOMS id type x y z vx vy vz 
1 1 3.34305 0.598497 -0.270351 -0.00343527 -0.0406848 -0.0204597 
2 1 0.138079 5.18729 1.81739 -0.0940196 0.0661545 0.0272764 
3 1 -0.0629635 -2.36266 2.50523 -0.0469768 0.0133068 0.0234643 
4 1 -1.97969 -3.69982 0.637131 0.0603627 0.0329067 -0.116282 
5 1 3.40609 -3.64605 -1.95866 0.0147218 -0.0193934 -0.0337696 
6 1 1.11043 -3.34684 4.14717 0.0517755 0.00861349 0.072108 
7 1 2.79691 -3.70921 1.37218 0.0404009 -0.042332 -0.0534313 
8 1 1.99251 2.34892 -2.22001 0.055372 0.00554672 -0.00608153 
9 1 1.27471 -1.74427 -3.10696 0.0330067 0.038842 0.039829 
10 1 -3.91287 1.22912 -4.59685 0.0517525 -0.00763282 -0.00503279 
11 1 -2.56363 4.50147 -3.30533 0.0237348 -0.0252592 -0.0232594 
12 1 -2.9882 1.9347 3.58629 0.0202855 0.0690503 -0.0398182 
13 1 4.93984 3.60491 -1.91139 -0.0423569 0.017706 -0.0502858 
14 1 -2.32212 -3.05154 4.2614 0.0358923 0.0305343 0.043118 
15 1 -2.32344 4.22557 1.79949 0.0197011 0.00954505 0.048862 
16 1 -1.13315 1.37095 5.02696 -0.0895915 -0.00107099 0.0526907 
17 1 0.575751 0.2371 -0.634553 -0.034736 -0.0186453 0.0106928 
18 1 -3.27234 2.30843 -2.83824 0.0785783 -0.00865246 0.0333127 
19 1 -1.06954 3.66579 4.51475 0.0411623 -0.031205 0.0228832 
20 1 -4.71429 -3.07573 1.38096 -0.0157808 -0.0800494 0.0271722 
21 1 4.18654 -1.58724 3.04169 0.0975311 0.00810941 -0.0329741 
22 1 -1.10811 -1.36272 4.78663 -0.0476271 -0.0263978 0.0547704 
23 1 3.8584 2.02118 3.94408 -0.00922043 -0.0165641 0.0286194 
24 1 -5.01744 -2.20311 -0.805343 -0.0279782 0.0955775 0.0199527 
25 1 3.63229 -0.410786 -4.07098 0.0069429 0.011106 0.0752902 
26 2 4.16562 -3.23547 2.61977 -0.0709403 0.0181919 -0.0772326 
27 2 4.88935 -2.77585 -2.17438 0.0248356 -0.0242475 -0.022755 
28 2 0.211983 -2.43154 -4.47536 -0.00624543 0.0175743 -0.0442046 
29 2 -2.69502 0.275992 -5.17333 -0.0247072 -0.013813 -0.0493027 
30 2 1.08625 -1.58389 3.39934 0.0438212 0.0373098 -0.0435649 
31 2 3.67512 4.42871 -2.04565 -0.00860686 -0.034917 -0.0248477 
32 2 -1.88897 1.63117 -3.35153 0.0102698 0.00079464 -0.0278234 
33 2 4.5666 2.25478 -3.90221 0.0183373 0.0212273 0.0490253 
34 2 -0.577984 -4.3168 0.607784 -0.056063 -0.00864752 -0.0318574 
35 2 -2.98051 4.48574 3.41975 -0.0293833 0.0144186 0.0256294 
36 2 1.10656 -1.11339 -0.121354 -0.0375775 -0.0449512 0.0212004 
37 2 4.36288 -1.13919 -0.0758254 0.0050013 0.0207071 0.0247619 
38 2 -0.640331 -5.04411 3.18397 -0.0485245 -0.0130043 -0.0616473 
39 2 -1.04902 4.93533 -4.11007 -0.0452548 -0.00636096 -0.0928723 
40 2 1.40846 -3.75376 2.5328 0.0574901 0.00459657 0.0211259 
41 2 1.75012 -2.89021 -2.14762 -0.0427864 0.0152584 -0.0165823 
42 2 5.22391 1.88158 -0.811625 0.0198867 -0.0552176 -0.0254059 
43 2 -3.98635 3.89358 -3.0887 0.0223218 0.00764734 -0.00414978 
44 2 -1.41019 -2.15518 3.19036 0.0249197 -0.0615273 0.023754 
45 2 4.0715 -0.810513 4.58913 -0.0461171 0.0279111 0.0586486 
46 2 -1.19601 1.8343 3.79567 -0.00481993 -0.0474715 0.0491374 
47 2 -3.45055 -4.13419 0.615957 -0.00509346 0.0397745 0.0587231 
48 2 -4.60009 1.49436 3.64962 0.0435451 0.0354301 -0.00998246 
49 2 1.99686 1.08954 -0.412598 -0.00713415 -0.0316065 0.0232936 
50 2 1.66858 0.633062 -3.07511 -0.0566724 -0.00818887 -0.0217182 
ITEM: TIMESTEP
500
ITEM: NUMBER OF ATOMS
50
ITEM: BOX BOUNDS pp pp pp
-5 5
-5 5
-5 5
ITEM: ATOMS id type x y z vx vy vz 
1 1 3.49407 0.145143 -0.367434 -0.00344326 -0.0103486 0.00511073 
2 1 -0.285322 -4.12391 2.00384 -0.00561181 0.0568659 -8.09768e-06 
3 1 -0.00827636 -1.89672 2.65028 0.0438595 0.0825478 0.0238768 
4 1 -1.76632 -3.23133 -0.6071 0.00166051 0.0374931 -0.107308 
5 1 3.46582 -3.96188 -2.44457 -0.00109211 -0.0342989 -0.0482941 
6 1 1.54768 -3.0163 4.72178 0.0272468 0.0580295 0.0323308 
7 1 2.77701 -3.95884 1.26032 -0.0486452 -0.00293372 0.0215101 
8 1 2.56415 2.17641 -2.31525 0.0486494 -0.0303711 -0.00756058 
9 1 1.34165 -1.31737 -2.78127 -0.0167522 0.0481117 0.0243246 
10 1 -3.89691 1.00285 -4.79179 -0.0423032 -0.0148554 -0.0316239 
11 1 -2.28302 4.53794 -3.71052 0.00798051 0.0061614 -0.03501 
12 1 -2.82969 2.48638 3.08608 0.0100008 0.0380554 -0.0262754 
13 1 4.74272 3.48375 -2.63565 0.0133465 -0.0373577 -0.0943761 
14 1 -2.14904 -3.59966 4.47079 0.00323765 -0.132593 0.0150456 
15 1 -2.35859 4.63823 2.49863 -0.0515098 0.0785431 0.0541803 
16 1 -1.70635 0.835069 -4.5086 -0.00893403 -0.0610899 -0.0166185 
17 1 0.567867 -0.0515037 -0.436687 0.0301599 -0.0332763 0.0321582 
18 1 -2.76159 2.24143 -2.1428 0.00643347 0.00742234 0.0998224 
19 1 -0.65921 3.7397 4.43654 0.0337841 0.00853104 -0.0430945 
20 1 -4.67156 -4.08656 1.76567 0.000863492 -0.100031 0.0497373 
21 1 4.816 -1.42667 2.98691 0.027694 0.0204935 -0.000866578 
22 1 -1.11797 -1.26124 5.27913 0.0280725 0.0158175 0.0296161 
23 1 4.10625 1.7744 4.37095 0.0525056 -0.027703 0.0518687 
24 1 4.97466 -1.49783 -1.05236 0.0176359 0.0341558 -0.0402911 
25 1 3.65424 -0.164203 -3.38334 0.00204434 0.0364208 0.0437026 
26 2 3.85631 -2.87367 1.58447 0.0273236 0.0333512 -0.105199 
27 2 4.84888 -2.9656 -2.16286 -0.0316128 -0.00272409 0.0255226 
28 2 0.0973803 -2.16617 -4.81331 -0.00394772 0.0284253 -0.0117494 
29 2 -2.80319 -0.047589 4.59302 0.00531086 -0.0559898 0.0162874 
30 2 1.3426 -1.25501 2.9486 0.00278545 0.0272056 -0.0439388 
31 2 3.21201 4.34529 -2.15818 -0.0569464 -0.00039333 -0.0108801 
32 2 -2.03737 1.96457 -3.36497 -0.0278836 0.0467855 0.0276981 
33 2 4.71922 2.01786 -3.60229 -0.00120728 -0.0529907 0.0077247 
34 2 -0.986866 -4.5003 0.424987 -0.0285877 -0.00749672 -0.0103234 
35 2 -3.32599 4.35574 3.52069 -0.057455 -0.0303437 -0.00433376 
36 2 0.519334 -1.51276 0.08094 -0.0803411 -0.0318315 0.0156486 
37 2 4.21599 -0.709456 0.415102 -0.00677638 0.0394906 0.0463864 
38 2 -1.06752 4.51012 2.7262 0.0151972 -0.0664715 -0.020904 
39 2 -1.64475 4.71425 -4.90894 -0.0429495 -0.00370793 -0.0676792 
40 2 1.68796 -3.95948 2.61108 -0.00997135 -0.0428806 0.00220605 
41 2 1.75413 -2.82823 -2.41543 0.0378221 0.00426757 -0.0407104 
42 2 -4.67445 1.4336 -1.244 0.00305811 -0.0423238 -0.0546921 
43 2 -3.35191 3.86683 -2.8389 0.0692203 -0.010235 0.0554307 
44 2 -1.41498 -2.70411 3.57219 0.0010625 -0.0354965 0.0152661 
45 2 3.72822 -0.527832 5.05931 -0.0157907 0.038188 0.0495532 
46 2 -1.33504 2.01222 4.0448 -0.0212017 0.0614718 0.025243 
47 2 -3.34752 -3.62168 1.1889 0.0375954 0.0542286 0.0439974 
48 2 -4.2758 2.02779 3.70147 0.0127492 0.0516419 0.0227368 
49 2 1.88277 0.990671 -0.426687 -0.000542524 -0.00952147 -0.0274917 
50 2 1.33786 0.453651 -3.14824 -0.00379441 -0.0364393 0.0122431 
