ITEM: TIMESTEP
100
ITEM: NUMBER OF ATOMS
50
ITEM: BOX BOUNDS pp pp pp
-5 5
-5 5
-5 5
ITEM: ATOMS id type x y z vx vy vz 
1 1 -3.16569 2.66149 3.47041 -0.0125467 0.0617423 -0.0338442 
2 1 0.200421 3.42615 0.659867 0.0233701 -0.0251407 0.0698262 
3 1 -0.941513 1.71999 2.75724 -0.0737541 -0.00817794 -0.0168512 
4 1 2.87371 -2.64365 1.57744 -0.0307981 0.031639 0.0170178 
5 1 -3.38435 1.96815 0.214131 -0.000901511 -0.00557426 0.0426696 
6 1 0.140941 0.185682 -3.14484 -0.0430116 0.00442045 0.0283041 
7 1 1.99946 1.31154 1.0517 0.013809 -0.0744845 -0.0512153 
8 1 -3.19442 0.836645 -3.38113 -0.0399946 -0.00238642 -0.0369978 
9 1 -3.95707 4.96508 4.58994 -0.0396996 0.00809304 0.0700245 
10 1 -1.36163 4.40194 2.76201 0.0040404 -0.0248775 0.0135295 
11 1 2.81575 0.396727 -2.45965 -0.0302259 0.0234073 -0.000130806 
12 1 -2.1282 4.17939 -0.192519 0.0339131 0.0283028 -0.0352696 
13 1 -0.716328 1.45809 0.372171 -0.00321392 0.016564 0.0198271 
14 1 3.50081 5.43939 0.14403 -0.0585266 0.0703229 -0.0323821 
15 1 -1.22342 2.27007 -1.78205 -0.00934494 0.00485622 0.00557558 
16 1 1.64638 2.84418 3.13138 -0.0693971 0.0285071 -0.0557697 
17 1 1.05988 -0.0063218 2.81998 0.0162544 -0.0243884 -0.00171742 
18 1 -4.01544 -2.8977 1.31356 0.0250542 -0.0469954 -0.0546684 
19 1 0.351157 -1.75938 4.08226 -0.0362611 0.0536665 0.0200875 
20 1 3.44981 2.54578 -0.322818 0.0250103 -0.0124721 0.00421571 
21 1 0.517052 4.82171 -1.7775 0.0888801 0.012285 -0.0574127 
22 1 -3.39585 0.157885 2.34249 0.0270881 -0.0307124 -0.018905 
23 1 1.01282 -2.4024 -2.68526 -0.0134465 -0.05186 -0.0554856 
24 1 3.92724 1.59811 2.9115 0.0824369 -0.0322024 -0.027819 
25 1 -3.69985 4.44655 1.83712 -0.0732701 0.0495366 -0.0454445 
26 2 0.13579 3.08298 -1.20168 -0.0560105 0.0587579 0.0332416 
27 2 -0.286672 3.1522 2.66447 0.0395998 -0.0540501 0.0100188 
28 2 -3.71839 -0.522774 -2.64471 0.0143134 0.0335698 0.0332245 
29 2 3.23913 4.40575 -0.900486 0.0936526 -0.0478261 -0.012933 
30 2 2.98497 1.10842 -1.13482 0.0623651 0.026895 -0.0287944 
31 2 -1.42619 0.772768 -3.1802 -0.0461884 -0.0582286 0.0475867 
32 2 0.600322 -1.08473 -4.60784 -0.0267377 -0.0382699 -0.0182498 
33 2 -0.0436598 -3.43933 3.38033 0.0418452 -0.0463733 -0.028466 
34 2 -1.97703 2.11919 -0.507199 0.023566 -0.0160079 0.00978968 
35 2 0.267646 1.11621 1.02979 -0.0482307 0.0186459 -0.0255699 
36 2 3.72949 1.47722 1.02016 0.0439114 -0.0299584 0.00635328 
37 2 0.550186 -3.48716 -1.75397 -0.0238203 0.00768849 0.0388019 
38 2 -4.26798 4.16024 0.201354 0.04122 -0.00624924 -0.0598018 
39 2 4.16214 -3.85083 1.41962 -0.018317 0.00722875 0.029141 
40 2 -3.63981 1.03611 3.61062 0.0305035 -0.079962 0.0735826 
41 2 -3.76402 3.66848 5.08571 0.0870087 0.0721538 0.0259067 
42 2 2.87895 2.1483 3.68348 -0.0328294 0.0353845 0.0640569 
43 2 -3.24222 -5.38223 3.32824 0.0303066 -0.0574509 0.0502034 
44 2 -4.24152 -0.569809 0.840985 -0.013496 0.00611828 0.0559266 
45 2 -0.952471 4.77525 0.646108 -0.0160035 -0.0391199 -0.017836 
46 2 2.43686 -0.368822 2.59387 -0.0105488 0.00955558 -0.0356919 
47 2 -2.88262 -3.96923 -0.0483865 -0.0136529 0.00995463 -0.0163472 
48 2 1.96613 2.94177 0.927143 -0.0268027 0.0520319 -0.0294489 
49 2 2.39108 -1.0168 -3.00417 0.0126738 0.0386584 0.0426227 
50 2 -2.71624 2.28972 2.00158 0.00620766 0.0427824 -0.0144818 
ITEM: TIMESTEP
200
ITEM: NUMBER OF ATOMS
50
ITEM: BOX BOUNDS pp pp pp
-5 5
-5 5
-5 5
ITEM: ATOMS id type x y z vx vy vz 
1 1 -3.49409 3.12108 3.50783 -0.0376314 0.0258494 0.0265586 
2 1 0.349387 3.50577 0.98244 -0.0389934 0.0300322 -0.0351797 
3 1 -1.5986 1.76695 2.5941 -0.02919 0.0164592 -0.00436136 
4 1 2.74565 -2.19218 1.95936 0.00826762 0.0537549 0.0511751 
5 1 -3.5083 2.12109 0.625876 -0.0184422 0.0507166 0.0167689 
6 1 -0.38688 -0.0204201 -3.1564 -0.0453862 -0.0545356 -0.0285088 
7 1 2.2934 0.61545 0.464533 0.0374896 -0.0635477 -0.0435802 
8 1 -3.371 0.576575 -3.69654 0.00620046 -0.0397781 -0.0291333 
9 1 -4.22788 5.11103 5.19143 0.00208179 -0.00270624 0.0592614 
10 1 -1.23818 4.38285 2.76581 0.00859801 0.0141853 -0.020531 
11 1 2.70213 0.608597 -2.40165 0.00814272 0.025417 0.0085864 
12 1 -2.03544 4.69798 -0.504497 0.00102325 0.0508679 -0.00964155 
13 1 -1.01365 1.52319 0.284669 0.0210479 -0.0142862 0.0186237 
14 1 3.18083 -4.30281 -0.219764 -0.00978292 -0.0115934 -0.0302947 
15 1 -1.25728 2.35326 -1.99144 -0.0144426 0.0171561 -0.0267689 
16 1 1.36402 3.11016 2.74113 0.0514721 0.00617156 0.00759036 
17 1 1.1286 0.083005 2.75643 -0.00390158 0.049595 -0.0146779 
18 1 -3.89263 -3.13014 0.545327 -0.0380885 0.0531574 -0.0534119 
19 1 -0.192609 -1.96357 4.15108 -0.0632707 -0.0750892 -0.00268018 
20 1 3.72333 2.64632 -0.278141 0.0340066 0.0293921 0.00155476 
21 1 1.24176 4.86464 -1.99827 0.0406357 -0.00463403 0.013881 
22 1 -3.28672 -0.148589 2.33594 0.0369198 -0.020941 0.0640006 
23 1 0.983162 -2.63216 -3.24201 -0.00251337 0.0103587 -0.0428721 
24 1 4.54768 1.14077 2.5401 0.0354387 -0.0623532 -0.023969 
25 1 -4.5102 4.75935 1.12299 -0.0749841 -0.00452484 -0.0870749 
26 2 -0.390601 3.67514 -1.18433 -0.040625 0.0454973 -0.0503723 
27 2 -0.122677 2.65458 2.81178 -0.0349525 -0.0328392 0.0233001 
28 2 -3.8008 -0.0872571 -2.41239 -0.0428316 0.0411194 0.0165478 
29 2 3.91446 4.03359 -0.953875 0.0357752 -0.0071876 0.0113072 
30 2 3.42454 1.52882 -1.42523 0.0225634 0.0468734 -0.0146861 
31 2 -1.58777 0.604784 -2.69804 0.0156578 0.0320877 0.0391717 
32 2 0.238471 -1.27156 -4.38579 -0.0429851 -0.0130566 0.0526256 
33 2 0.359665 -3.68108 3.18522 0.0336397 -0.00376587 -0.00905035 
34 2 -2.21735 1.99235 -0.494808 -0.0700829 -0.0176278 -0.0329958 
35 2 0.393749 0.957968 1.37691 0.0214113 -0.0377067 0.0385582 
36 2 4.16273 1.48655 1.29693 0.0344091 0.0377283 0.00850957 
37 2 0.547231 -3.59987 -1.68048 0.0330163 -0.0264117 -0.0338736 
38 2 -3.65903 3.70805 0.00703025 0.064312 -0.0578411 0.0156037 
39 2 3.92816 -3.55671 1.49308 -0.0256581 0.0368007 -0.0258273 
40 2 -3.29883 0.368732 4.13598 0.0388162 -0.0471218 0.0254043 
41 2 -2.98906 3.89104 -4.24415 0.0545852 0.0117561 0.0743067 
42 2 2.46524 2.51244 4.0397 -0.048193 0.0363362 0.00315752 
43 2 -2.81708 4.3929 3.03551 0.0393219 0.024116 -0.0625439 
44 2 -4.16551 -0.621573 1.55836 -0.0137882 -0.0311554 0.0427304 
45 2 -0.952125 4.1736 0.98113 0.000260503 -0.0512677 0.0897272 
46 2 2.42449 -0.492669 2.02534 0.00654654 -0.0410366 -0.0768041 
47 2 -3.02741 -3.78782 -0.0284735 0.0288537 -0.0191739 -0.0200766 
48 2 1.79356 3.36281 0.850177 0.0249845 0.0307678 0.00886637 
49 2 2.22722 -0.829438 -2.50284 -0.0456679 -0.006097 0.0486143 
50 2 -2.60222 2.47443 1.87443 -0.00406641 -0.0299176 0.0124839 
ITEM: TIMESTEP
300
ITEM: NUMBER OF ATOMS
50
ITEM: BOX BOUNDS pp pp pp
-5 5
-5 5
-5 5
ITEM: ATOMS id type x y z vx vy vz 
1 1 -3.60142 3.44328 3.54614 0.0133535 0.0359616 -0.0312102 
2 1 0.258155 3.77291 0.304432 0.0188749 0.0265378 -0.065697 
3 1 -1.44204 1.95471 2.85126 -0.0106371 0.00830108 0.0254654 
4 1 3.0396 -1.93773 2.33405 0.0422281 -0.00927535 0.011919 
5 1 -3.53278 2.37729 0.617439 0.0184092 -0.0230461 0.0027052 
6 1 -0.798375 -0.525515 -3.39475 -0.0490304 -0.0056555 0.0053339 
7 1 2.69872 0.0201381 0.213501 0.0372124 -0.0508588 -0.0309052 
8 1 -3.24188 0.17012 -3.87988 0.00356461 -0.0335254 -0.00561153 
9 1 -3.87103 -5.08553 -4.01686 0.0603695 -0.0290632 0.0991338 
10 1 -1.21904 4.63988 2.71454 -0.00547465 0.0424101 0.0302511 
11 1 2.84428 0.678717 -2.35373 0.0145214 -0.0118468 0.00275669 
12 1 -1.99529 4.84983 -0.403598 0.00389308 -0.0279582 0.016283 
13 1 -0.851041 1.30659 0.417546 0.00320379 -0.0363758 0.00179332 
14 1 3.14015 -4.45361 -0.294668 -0.0139294 0.00790614 0.0203075 
15 1 -1.66906 2.54091 -2.14514 -0.0603903 0.0183532 -0.00585855 
16 1 1.87631 3.12051 2.70201 0.0276009 0.023624 -0.058312 
17 1 1.20778 0.683083 2.58582 0.0196559 0.0560392 -0.00542128 
18 1 -4.38621 -2.22932 0.21237 -0.046563 0.0941417 -0.0126284 
19 1 -0.635397 -2.89214 4.14261 -0.0198828 -0.101074 -0.00127436 
20 1 3.94871 2.71443 -0.265625 -0.00145437 -0.0226099 -0.00267817 
21 1 1.20328 4.71557 -1.79369 -0.0442592 -0.02835 0.00793886 
22 1 -2.85875 -0.466478 3.15611 0.0288403 -0.0479601 0.0489206 
23 1 0.977462 -2.34089 -3.33608 0.0110632 0.0280413 0.0308715 
24 1 4.80188 0.340198 2.25677 0.027326 -0.0742932 -0.0579233 
25 1 -4.90059 4.53129 0.201147 0.033119 -0.0145294 -0.0701661 
26 2 -0.717484 3.99523 -1.68092 -0.0202531 0.019446 -0.0190562 
27 2 -0.308407 2.50628 3.23117 0.0363012 0.00269128 0.0688827 
28 2 -4.37366 0.247237 -2.53368 -0.0561255 0.023858 -0.0494447 
29 2 4.1083 4.54667 -0.594228 -0.00668901 0.0761365 0.036592 
30 2 3.37497 1.82286 -1.42395 -0.030187 0.013067 0.0120649 
31 2 -1.13606 1.06773 -2.63699 0.0697846 0.0326366 -0.0382682 
32 2 -0.253354 -1.72408 -4.07566 -0.0476482 -0.0858653 -0.0047922 
33 2 0.488152 -3.49686 3.27411 -0.0132971 0.0342863 0.0265964 
34 2 -2.444 1.58105 -0.676909 0.0146462 -0.0372829 0.0177424 
35 2 0.321812 0.642957 1.33988 -0.0465761 -0.00830473 -0.0477373 
36 2 4.4983 2.0789 1.12404 0.0401667 0.0573292 -0.0215112 
37 2 1.18 -3.87121 -2.31751 0.0846789 -0.0147771 -0.082664 
38 2 -3.46931 3.93829 0.157157 -0.0129436 0.0795829 0.00391432 
39 2 3.71595 -3.25445 0.902339 -0.0135166 0.0245704 -0.0838844 
40 2 -2.88365 0.058363 4.4266 0.0441339 -0.0157353 0.0725423 
41 2 -2.77632 4.12672 -3.73008 -0.0038221 0.0273296 0.0343273 
42 2 2.09005 2.76574 4.09526 -0.0125633 0.00307424 0.0373287 
43 2 -2.82837 4.73163 2.86384 -0.036413 0.029197 0.0331356 
44 2 -4.39938 -0.94243 1.95801 -0.021159 -0.024565 0.0490479 
45 2 -0.914612 3.84509 1.40896 0.031886 -0.0399132 -0.0481696 
46 2 2.46734 -0.786055 1.30394 0.0139017 -0.0144105 -0.0466315 
47 2 -2.82008 -3.93591 -0.261658 -0.0122022 0.0360012 -0.0184735 
48 2 1.97175 3.67498 1.0197 -0.00465312 0.0316116 0.0162288 
49 2 1.72761 -0.754745 -2.04871 -0.042523 0.0275512 0.0374221 
50 2 -3.11747 1.69577 2.24505 -0.0665421 -0.102409 0.0588136 
ITEM: TIMESTEP
400
ITEM: NUMBER OF ATOMS
50
ITEM: BOX BOUNDS pp pp pp
-5 5
-5 5
-5 5
ITEM: ATOMS id type x y z vx vy vz 
1 1 -3.6639 3.66414 3.09568 -0.0383117 0.00871878 -0.0511098 
2 1 0.487748 3.81945 0.10427 0.0250272 -0.0182226 0.011245 
3 1 -1.61159 1.92486 3.0743 0.00433175 -0.0157826 0.0298111 
4 1 3.41624 -2.15054 2.07112 0.0364858 -0.022421 -0.0527805 
5 1 -3.35048 2.09116 0.679195 0.00906845 -0.0150481 0.0021709 
6 1 -1.07074 -0.357472 -3.33513 -0.00516833 0.0329347 -0.011337 
7 1 2.81307 -0.405597 -0.365655 -0.0310472 -0.0518085 -0.0496457 
8 1 -3.61222 0.0282038 -3.76424 -0.0692732 0.00121017 0.0197121 
9 1 -3.73027 5.01304 -3.01452 0.00942071 0.0196736 0.0989632 
10 1 -1.26587 4.85366 2.70324 -0.00608323 0.000326344 -0.0341863 
11 1 2.93066 0.551021 -2.40755 0.000145636 -0.000405046 -0.0245597 
12 1 -2.03649 4.65956 -0.249589 0.0316172 0.00436989 0.00400176 
13 1 -1.05376 0.976286 0.0963009 -0.0153335 -0.0293017 -0.0538921 
14 1 2.74665 -4.01921 0.135872 -0.0388603 0.0393923 0.0413941 
15 1 -2.09924 2.67229 -2.23345 -0.0128765 0.0149281 -0.0166801 
16 1 2.07497 3.53652 2.36437 0.017163 0.049816 0.0128301 
17 1 1.15861 1.15368 2.43324 -0.034335 0.0382169 -0.0209343 
18 1 -4.85769 -1.60562 0.279417 -0.0429586 0.00902246 0.0143496 
19 1 -0.777938 -3.58635 4.55564 -0.00514601 -0.027137 0.0918612 
20 1 3.72976 2.56223 -0.245664 -0.0288134 0.00954553 0.010625 
21 1 0.604814 4.6416 -2.2827 -0.0645299 0.0158716 -0.101559 
22 1 -2.80942 -0.813842 3.47699 -0.0193938 -0.0122345 0.0339112 
23 1 1.14748 -2.23905 -2.83405 0.0187764 -0.00775447 0.0543704 
24 1 5.14316 0.223105 1.71089 0.0454764 0.0370148 -0.0214337 
25 1 -4.51864 4.87851 -0.234667 -0.00510715 0.0709732 -0.0375072 
26 2 -0.677137 4.13545 -1.40889 0.029624 0.015143 0.0572702 
27 2 -0.128208 2.45035 3.70237 -0.0313992 -0.0207805 0.00254575 
28 2 -4.84603 0.396369 -3.22207 -0.0526329 0.00998676 -0.0686018 
29 2 3.87481 4.81899 -0.655415 -0.0109886 -0.00895734 -0.0160481 
30 2 2.92763 1.7015 -1.2688 -0.047587 -0.0419872 0.0194744 
31 2 -0.616238 1.20828 -3.15788 0.0235878 -0.00307735 -0.0453073 
32 2 -0.70851 -2.51433 -4.1196 -0.0372979 -0.0682775 0.00567308 
33 2 0.301927 -3.29716 3.41235 -0.0277158 -0.00130634 -0.0014034 
34 2 -2.23789 1.47967 -0.233809 -0.0032755 0.0105979 0.0434892 
35 2 0.0368836 0.699683 1.19601 0.000752035 0.0149253 0.0284788 
36 2 5.01586 2.49527 0.829065 0.0597043 0.0201837 -0.0365315 
37 2 1.95019 -3.99556 -3.01037 0.0491442 -0.00688851 -0.0466555 
38 2 -3.07623 3.96019 0.293976 0.0500653 -0.0602474 0.0291576 
39 2 3.73185 -2.74332 0.179282 0.0217406 0.0883193 -0.050542 
40 2 -2.31315 -0.202918 5.26128 0.0675006 -0.044888 0.0717483 
41 2 -2.38685 3.86476 -3.30673 0.0351163 -0.0510478 0.055204 
42 2 2.26404 2.75391 4.15274 0.0511773 0.000820479 -0.036003 
43 2 -2.88472 4.97959 3.3486 0.0394653 0.0247183 0.0486703 
44 2 -4.53999 -1.47108 2.31162 -0.0188439 -0.0622999 0.0107377 
45 2 -0.728387 3.53823 0.849378 -0.00920504 -0.0194658 -0.032036 
46 2 2.85011 -0.891477 1.35162 0.0645055 0.0130238 0.0203505 
47 2 -2.95997 -3.35776 -0.498465 -0.0205382 0.0510393 -0.0266598 
48 2 1.76164 4.0067 0.952082 -0.0242871 0.0403002 -0.0330964 
49 2 1.56429 -0.443302 -1.81039 0.0184465 0.017882 0.0130668 
50 2 -3.47527 0.844344 2.7802 -0.0073332 -0.0696151 0.0373983 
ITEM: TIMESTEP
500
ITEM: NUMBER OF ATOMS
50
ITEM: BOX BOUNDS pp pp pp
-5 5
-5 5
-5 5
ITEM: ATOMS id type x y z vx vy vz 
1 1 -4.03816 3.96214 2.52755 -0.0247584 0.0475247 -0.0623821 
2 1 0.536428 3.52195 0.0528183 0.000569214 -0.0300927 -0.00844156 
3 1 -1.66625 1.57117 3.33642 -0.0516304 -0.0613751 0.0124395 
4 1 3.80003 -2.15085 1.77848 0.0199623 0.0307794 0.013724 
5 1 -3.25125 2.43218 0.581983 0.0202505 0.0575153 -0.0291466 
6 1 -0.939201 -0.0246379 -3.60292 0.0323778 0.0149351 -0.0303303 
7 1 2.34075 -0.919642 -0.461633 -0.025345 -0.0342356 0.0327733 
8 1 -4.01232 -0.00639153 -3.75379 -0.035243 -0.00293214 -0.00316693 
9 1 -3.31726 -4.90188 -2.24323 0.0739652 0.00131263 0.0496283 
10 1 -1.31436 4.80217 2.32422 0.00131084 -0.0124371 -0.0247666 
11 1 2.90152 0.721344 -2.73539 -0.000262398 0.0205774 -0.0210755 
12 1 -1.45599 4.57161 -0.202321 0.0500756 -0.0310852 0.0140043 
13 1 -0.754799 0.690005 -0.185821 0.0362448 -0.0153802 0.00346358 
14 1 2.55316 -3.9519 0.22572 -0.0102593 -0.0360147 -0.0221589 
15 1 -1.85661 2.45415 -2.14306 0.05005 -0.056687 0.0278114 
16 1 2.23173 4.02534 2.69032 0.0110586 0.0488042 0.0300908 
17 1 0.705978 1.58796 2.37951 -0.0390999 0.0635644 0.0244544 
18 1 -4.84194 -1.75655 0.329119 0.068453 -0.00410358 -0.0143207 
19 1 -0.687421 -3.80442 5.07541 0.0113037 -0.0226857 -0.0265179 
20 1 3.51552 2.80811 -0.17852 -0.00842995 0.0289195 0.00106627 
21 1 -0.028509 4.83537 -3.21689 -0.0576215 0.0181103 -0.0590649 
22 1 -3.11789 -0.846775 3.84767 -0.0298974 -0.0149756 0.042453 
23 1 1.42648 -2.42487 -2.41014 0.0390131 -0.0279049 0.0223288 
24 1 -4.46079 0.601943 1.93015 0.0187914 0.0287007 0.0391426 
25 1 -4.68274 5.56864 -0.343734 -0.0253326 0.0696306 0.014706 
26 2 -0.172596 4.47976 -1.16078 0.0604505 0.0448729 -0.012895 
27 2 -0.425043 2.25611 3.4532 0.0137505 -0.00419344 -0.0311323 
28 2 -5.73637 0.5255 -3.69225 -0.0958793 0.00751535 -0.03039 
29 2 3.97149 4.75335 -0.631732 0.0293035 0.00261177 0.0208704 
30 2 2.73222 1.32379 -0.936261 0.00554892 -0.0142993 0.0406866 
31 2 -0.498565 1.27632 -3.31302 0.00785451 0.0404594 0.0180403 
32 2 -0.956845 -3.05315 -3.58887 -0.00906548 -0.04697 0.107988 
33 2 -0.207455 -3.59843 3.4657 -0.0652569 -0.0559593 0.0166695 
34 2 -2.37886 1.29343 -0.204714 0.0133524 -0.0577701 -0.0355998 
35 2 -0.031452 0.838028 1.37169 -0.0254016 -0.00361204 -0.0218242 
36 2 -4.86326 2.35241 0.600652 -0.0453323 -0.0440273 0.000413793 
37 2 1.98079 -3.89496 -3.26049 -0.0410906 0.0293231 -0.0049349 
38 2 -2.96963 3.84155 0.588339 -0.00515723 0.0706893 0.0286265 
39 2 3.69668 -2.09347 -0.291816 -0.0473692 0.0204101 -0.0489733 
40 2 -2.19046 -0.705862 -4.20955 -0.0610918 -0.0457387 0.0199796 
41 2 -2.46222 3.88025 -2.81262 -0.0339833 0.0513583 0.05174 
42 2 2.81786 2.87893 3.3407 0.0498563 0.0219497 -0.112354 
43 2 -2.33076 4.92891 3.59474 0.0551014 -0.0318162 -0.0046534 
44 2 -4.80645 -1.98721 2.11369 -0.0190095 -0.0539528 -0.042886 
45 2 -0.80284 3.506 1.09707 0.0134416 0.0209177 0.0605997 
46 2 3.55161 -0.501312 1.40141 0.0681096 0.0527448 -0.00433483 
47 2 -3.40202 -3.23749 -0.782381 -0.0748827 -0.0319203 -0.0291425 
48 2 1.85572 4.50393 0.889659 0.0302007 0.0551356 0.0204617 
49 2 1.90183 -0.744552 -1.89132 0.024499 -0.079894 -0.0461684 
50 2 -3.36395 0.299995 2.99848 0.026505 -0.0282991 0.0124991 
