ITEM: TIMESTEP
100
ITEM: NUMBER OF ATOMS
50
ITEM: BOX BOUNDS pp pp pp
-5 5
-5 5
-5 5
ITEM: ATOMS id type x y z vx vy vz 
1 1 4.66633 1.86089 -3.69295 0.00863112 -0.0123825 0.00694019 
2 1 -3.3067 -0.914849 -2.98318 0.0675395 0.0550962 0.0848701 
3 1 4.62213 4.14598 -0.403602 0.0225445 0.047319 0.0098594 
4 1 -2.3125 -2.78196 -1.33504 -0.0802845 -0.0279557 0.046341 
5 1 1.42019 4.06745 -2.86367 -0.057377 -0.0414453 -0.0253394 
6 1 2.35923 2.82012 -0.350956 0.00239524 -0.0145829 -0.00321032 
7 1 3.97633 -1.82715 0.737832 0.0458147 0.0738766 0.0391647 
8 1 1.16366 -4.59315 -1.86945 -0.0263968 0.0128946 0.0372582 
9 1 3.2054 -1.77079 -3.17173 0.0245524 0.0266553 -0.0430748 
10 1 -0.00758777 0.993274 2.16826 -0.00933953 -0.00801201 -0.00351237 
11 1 0.316335 -1.49164 -3.07884 -0.0434191 -0.0571327 0.0152092 
12 1 -1.04901 -4.77168 -2.81136 -0.0310645 -0.00454578 -0.0478448 
13 1 0.703549 -1.0233 3.87094 -0.00264849 0.0347173 0.0581593 
14 1 -1.21708 0.508692 -1.33855 -0.00416096 0.0148901 -0.00865282 
15 1 -3.2567 0.733726 1.51922 0.0357285 -0.0539937 -0.0650598 
16 1 -3.42207 -2.33703 1.5636 -0.00171829 -0.0359369 0.00649894 
17 1 0.0770393 0.873008 -4.24715 -0.0391124 -0.00284393 0.0342034 
18 1 3.408 -4.57321 0.543735 0.027412 0.0465909 0.00409511 
19 1 0.725525 -3.17814 0.920823 0.00886484 -0.0112081 -0.0390109 
20 1 -4.97022 0.555622 -0.948514 -0.0404265 -0.0700619 0.0421372 
21 1 -5.18648 -3.33584 -1.57634 -0.0500031 -0.0137412 -0.0381655 
22 1 -0.90706 4.62946 -0.0911616 0.02146 0.0150211 0.116009 
23 1 3.78666 3.72925 3.92496 -0.0248999 0.0182417 0.0373533 
24 1 -2.75748 2.47192 -1.75851 0.0459663 -0.0149821 -0.000607105 
25 1 2.57231 1.22204 1.75934 -0.0284724 0.0171172 0.020301 
26 2 0.0672502 -0.748926 -4.48792 0.0433269 -0.0057574 0.0262626 
27 2 -2.99632 -2.47515 -3.21541 0.035744 -0.0678497 0.0243099 
28 2 -0.926585 -2.33114 2.21499 -0.0421268 -0.085307 0.0518547 
29 2 4.4504 -3.07176 -0.327753 0.0443084 -0.0526727 -0.106631 
30 2 2.88044 -2.66615 1.57657 0.0121979 0.0770792 0.0239813 
31 2 -2.49288 2.8633 -3.51614 -0.0136957 0.0601271 -0.00274021 
32 2 0.449667 -4.76451 0.315322 -0.0527358 -0.00712947 -0.0321802 
33 2 4.18765 4.3434 1.2098 0.0440331 -0.0225828 -0.0374033 
34 2 4.59455 -2.341 -2.84493 0.0787872 0.0301619 0.0245597 
35 2 0.769786 1.40312 1.19551 0.0458717 -0.00859816 -0.0735957 
36 2 2.57527 -1.36827 -2.02039 0.0770603 0.0377016 0.00911295 
37 2 1.45835 3.73723 -1.45956 0.0595627 0.0115959 -0.0932123 
38 2 -4.07306 -0.294031 0.349184 0.0520925 0.0574366 0.0727998 
39 2 -1.55632 -0.916421 -1.57618 0.0160958 0.0530686 0.0514435 
40 2 1.03352 2.59571 -3.08028 -0.097219 -0.0617357 -0.0310143 
41 2 3.82458 2.32721 4.80706 0.0254606 0.0443467 0.0149698 
42 2 -0.567091 -3.10669 -1.90261 0.0554555 -0.125685 0.0927464 
43 2 0.985686 -4.6434 -3.68218 -0.0146752 0.0110066 -0.0225771 
44 2 -1.73403 1.84164 -0.459526 -0.050901 0.0144303 -0.00353307 
45 2 4.22971 0.620316 -2.11693 0.0100229 0.025772 -0.0708421 
46 2 -4.48599 1.98102 -1.30311 -0.0505026 -0.0239959 -0.0480034 
47 2 3.57058 4.87824 -1.49748 -0.019623 0.0674222 -0.045725 
48 2 -2.51611 -3.29104 0.206126 -0.075191 0.0293494 -0.0202558 
49 2 -2.19726 4.8596 -1.84847 -0.00231762 0.0105624 -0.117049 
50 2 -1.64606 1.04299 2.71807 -0.0526172 -0.0623419 0.0287987 
ITEM: TIMESTEP
200
ITEM: NUMBER OF ATOMS
50
ITEM: BOX BOUNDS pp pp pp
-5 5
-5 5
-5 5
ITEM: ATOMS id type x y z vx vy vz 
1 1 4.65071 1.80959 -3.47962 0.00749119 0.0389113 0.0182601 
2 1 -2.70693 -0.796939 -2.16267 0.0357556 -0.0270043 0.0676288 
3 1 5.09018 4.38353 -0.687619 0.0460809 0.0195326 -0.0510989 
4 1 -2.85292 -3.17435 -1.27897 -0.0463816 -0.0595338 -0.0361149 
5 1 0.956051 3.19194 -3.63841 -0.0445486 -0.0774521 -0.066686 
6 1 2.09474 2.84542 -0.715447 -0.040347 0.0112786 -0.0497152 
7 1 4.29729 -1.34858 1.01923 0.0291257 0.0275538 0.0304266 
8 1 1.22452 -4.32623 -1.22784 0.0889482 -0.0349618 0.039786 
9 1 3.72789 -1.32973 -3.36896 0.0693351 0.0813776 0.0210724 
10 1 -0.616727 0.979641 2.06366 -0.0751459 0.00314291 -0.00928858 
11 1 -0.240647 -2.21668 -2.78575 -0.0621252 -0.075093 0.0344901 
12 1 -1.25171 -4.60756 -3.42645 -0.00311493 0.0269543 -0.0579469 
13 1 0.558746 -0.947344 4.46852 -0.0163488 -0.0165668 0.0410503 
14 1 -1.05192 0.928718 -1.03047 0.0406486 0.0539097 0.052793 
15 1 -2.40015 0.500457 1.1044 0.0871326 -0.00495455 -0.0252608 
16 1 -3.06374 -2.77707 1.50897 0.0642556 -0.0379786 0.0313295 
17 1 -0.327636 0.756583 -3.87653 -0.0709478 -0.126019 0.00562522 
18 1 3.5836 -3.69778 0.644133 0.0310855 0.0937343 1.67898e-05 
19 1 0.642066 -3.24623 0.639559 -0.0271523 0.0105044 -0.00857548 
20 1 -5.25991 0.105296 -0.808612 -0.0162368 -0.0104742 -0.0285756 
21 1 4.37125 -3.57368 -2.53844 -0.03117 -0.0176921 -0.0847167 
22 1 -1.07191 4.69757 0.872515 -0.0268711 0.00922815 0.0739368 
23 1 3.55856 3.82418 4.32364 -0.0218468 0.0147521 0.0359641 
24 1 -2.62006 2.74706 -1.97584 -0.0244304 0.0698519 -0.046012 
25 1 2.23381 1.37231 1.90402 -0.0241724 0.0121441 0.0128482 
26 2 0.535265 -0.691212 -4.13488 0.029842 0.00864441 0.0626375 
27 2 -2.32593 -2.83556 -2.7285 0.107163 0.00191053 0.066213 
28 2 -1.24267 -3.123 2.63923 -0.0335391 -0.0768977 0.022162 
29 2 4.7654 -3.41479 -0.252335 0.0110013 -0.0191666 0.0588579 
30 2 3.03042 -1.96824 1.58341 0.0242246 0.0561284 -0.0230394 
31 2 -2.64591 3.01294 -3.45457 -0.0165414 -0.0403793 -3.79123e-05 
32 2 0.475417 -4.66589 0.357692 0.0519598 -0.00953342 0.0886896 
33 2 4.42393 4.15278 0.712081 0.00337952 -0.00811248 -0.05352 
34 2 5.23883 -1.93833 -2.80482 0.0424246 0.0458409 -0.0101788 
35 2 1.62105 1.39017 0.618812 0.0870576 0.0129786 -0.048093 
36 2 2.9215 -1.14373 -1.82857 0.0195973 0.00273372 0.0205935 
37 2 1.96012 3.82209 -1.78254 0.021691 -0.0231982 -0.016029 
38 2 -4.18827 -0.115744 0.838342 -0.071544 -0.0209644 0.0149984 
39 2 -1.60205 -0.591545 -1.4046 -0.00589521 0.0205599 -0.00358274 
40 2 -0.0270406 1.95346 -3.61889 -0.0665353 0.0513711 -0.0208418 
41 2 4.17592 2.80229 5.09624 0.0403146 0.0357061 0.0505578 
42 2 -0.182964 -4.07952 -1.36152 -0.0533208 -0.0133082 -0.0137923 
43 2 0.674947 -4.63929 -3.63656 -0.0538554 -0.013521 0.00878072 
44 2 -2.16834 1.87297 -0.622526 -0.020907 -0.0088906 -0.00943299 
45 2 4.19139 0.551632 -3.21914 -0.018238 -0.0629925 -0.117924 
46 2 -4.56749 2.16661 -1.52438 0.00806773 0.0382054 -0.00886501 
47 2 3.60489 5.55609 -1.7514 0.0151483 0.063031 -0.0224449 
48 2 -3.35097 -2.97183 0.221216 -0.0536219 0.0278541 -0.00866363 
49 2 -2.38707 4.90302 -2.43373 -0.0379354 0.00650722 0.00493351 
50 2 -1.95997 0.382516 2.68638 0.00104287 -0.059652 -0.0432148 
ITEM: TIMESTEP
300
ITEM: NUMBER OF ATOMS
50
ITEM: BOX BOUNDS pp pp pp
-5 5
-5 5
-5 5
ITEM: ATOMS id type x y z vx vy vz 
1 1 4.8543 2.29537 -3.26916 0.0382684 0.0450142 0.0235224 
2 1 -2.82125 -1.38363 -1.7542 -0.0182016 -0.075805 0.0391257 
3 1 -4.82002 4.58193 -1.01709 -0.0395614 0.0125096 -0.00583928 
4 1 -3.24102 -3.83247 -1.59287 -0.0152815 -0.0324067 -0.00876965 
5 1 0.670586 2.884 -4.05476 -0.0213779 0.00550173 -0.0166833 
6 1 1.82463 2.5937 -0.844085 -0.00507288 -0.0492621 0.000968755 
7 1 4.68581 -1.1623 1.48344 0.0235485 -0.0111129 0.077432 
8 1 2.13916 -5.02769 -1.26167 0.102367 -0.0721601 -0.0365841 
9 1 4.3644 -0.631484 -2.87712 0.0452471 0.0247806 0.0312787 
10 1 -0.869112 1.21027 2.47936 -0.0108993 0.0276649 0.0714595 
11 1 -0.258297 -3.01794 -2.25143 0.102149 -0.0701249 0.0617606 
12 1 -1.34491 -4.57213 -3.59006 -0.0337675 -0.0234787 0.0130814 
13 1 0.566732 -1.31306 4.78946 0.0230257 -0.0473355 0.0404995 
14 1 -0.611797 1.34743 -0.856992 0.0294863 0.0276216 -0.0181936 
15 1 -2.6354 0.137685 0.457448 -0.0825312 -0.0553003 -0.090375 
16 1 -2.38498 -3.04091 1.86119 0.033031 0.0116227 0.0021877 
17 1 -1.07978 -0.263426 -3.53522 -0.0733545 -0.0624706 0.0745358 
18 1 3.55874 -2.91492 0.719531 -0.035027 0.0564804 -0.000742179 
19 1 0.247467 -3.07418 0.673999 -0.0371063 0.00164097 0.00109911 
20 1 4.59602 0.146675 -1.09001 -0.0204711 0.0152513 0.0210918 
21 1 4.28549 -3.42891 -3.2756 -0.00365888 0.0342626 -0.0503048 
22 1 -1.06851 4.92996 1.53242 0.0279081 0.0284337 0.0715708 
23 1 3.44612 3.93077 4.74143 0.00440247 0.00162518 0.0528999 
24 1 -2.95845 3.4298 -2.26928 -0.0317834 0.0385382 -0.032975 
25 1 2.15773 1.45963 1.85049 0.0113459 0.00625716 -0.0405291 
26 2 0.523683 -0.731122 -3.64346 -0.0342742 -0.0194389 0.0140742 
27 2 -1.85461 -2.34389 -2.27153 -0.0770631 0.0885513 0.0131445 
28 2 -1.68108 -3.97033 2.50505 -0.0280814 -0.112607 -0.0359664 
29 2 4.84582 -3.66501 0.138122 0.0206575 -0.0321719 0.0222243 
30 2 3.23932 -1.65479 1.28534 0.0119609 0.0144871 -0.0229032 
31 2 -2.96822 2.35612 -3.74642 -0.061527 -0.0695493 -0.0310875 
32 2 0.972434 -4.78519 1.36555 0.025897 0.00726075 0.0837273 
33 2 4.41928 4.02857 0.144163 -0.00510229 -0.0248399 -0.05915 
34 2 -4.33364 -1.61478 -2.80202 0.0498599 0.0255912 0.019951 
35 2 2.34246 1.72552 0.139079 0.0533961 0.0406978 -0.025958 
36 2 3.35518 -1.06603 -1.61395 0.0791235 0.0311809 0.0164864 
37 2 1.95612 3.64681 -2.11501 -0.0178701 -0.0175961 -0.0340846 
38 2 -4.80847 -0.130304 0.58712 -0.0141208 0.0591993 -0.0863639 
39 2 -1.19656 -0.112859 -1.21331 0.0491895 0.0550616 0.0238288 
40 2 -0.65029 2.16535 -3.75537 -0.0428208 -0.0190505 -0.00825619 
41 2 4.43854 3.23281 -4.34786 0.000360456 0.0646662 0.0448503 
42 2 -0.438156 -3.93185 -1.31506 0.0187936 0.000766725 0.0606153 
43 2 -0.035214 -4.81623 -3.7854 -0.0649583 -0.0202682 -0.0383322 
44 2 -2.10215 1.80464 -0.47675 0.0251288 0.000643751 0.0428665 
45 2 4.05167 0.237944 -4.47778 -0.00819551 0.00766661 -0.121057 
46 2 -4.66078 2.59023 -1.83531 -0.021366 0.0467229 -0.0519162 
47 2 3.48629 -4.06026 -1.9934 -0.0272598 0.0213616 -0.0387845 
48 2 -2.96347 -2.53401 0.124063 0.107993 0.0561577 -0.00416018 
49 2 -2.988 4.96332 -2.17641 -0.083928 -0.00338531 0.0289187 
50 2 -1.75829 -0.13082 1.97278 0.0315219 -0.0388565 -0.0941848 
ITEM: TIMESTEP
400
ITEM: NUMBER OF ATOMS
50
ITEM: BOX BOUNDS pp pp pp
-5 5
-5 5
-5 5
ITEM: ATOMS id type x y z vx vy vz 
1 1 5.15973 2.54288 -3.57029 -0.0217356 0.00983767 -0.0677483 
2 1 -3.36132 -1.80501 -1.10712 -0.0637521 -0.00901029 0.0491106 
3 1 -5.10974 4.71335 -1.06224 0.0376466 0.00842329 0.00627458 
4 1 -3.22204 -3.66795 -1.29901 0.0116985 -0.0211726 0.0425659 
5 1 0.261076 3.10394 -3.92474 -0.050937 0.0435005 0.0380687 
6 1 1.94092 2.30447 -1.23934 0.0340955 -0.0189196 -0.0546447 
7 1 4.88843 -1.00398 2.08203 -0.00176704 0.032509 0.0405574 
8 1 3.197 4.41271 -1.85148 0.0690213 -0.061671 -0.0907715 
9 1 4.77251 -0.593953 -3.17191 0.0476314 0.0104564 -0.0482119 
10 1 -1.22634 1.19707 2.99184 -0.0523208 -0.025278 0.0252505 
11 1 0.699102 -3.40989 -1.92633 0.0814405 -0.0410478 0.0245332 
12 1 -1.95031 -4.81129 -3.4132 -0.0496226 -0.0143862 0.00741325 
13 1 0.874087 -1.73238 5.3692 0.0317416 -0.0379165 0.0638316 
14 1 -0.750115 1.57997 -1.04889 -0.0541427 0.0287435 -0.00684692 
15 1 -3.10024 -0.114848 -0.154819 0.0190932 0.0330407 -0.0114899 
16 1 -2.3417 -2.64197 1.57164 -0.00247777 0.0405574 -0.047013 
17 1 -1.56837 -0.758368 -2.51973 -0.00757838 -0.0233722 0.10664 
18 1 3.40003 -2.8738 0.268621 0.0106211 -0.00921977 -0.0588963 
19 1 -0.0210239 -3.19398 0.560997 -0.0198294 0.00390132 0.00802789 
20 1 3.98416 0.531791 -0.502407 -0.0971413 0.0596917 0.0575967 
21 1 4.19253 -3.11789 -3.4174 -0.0125715 0.0173632 0.0150781 
22 1 -0.228962 4.7292 2.08478 0.0963946 -0.0475791 0.0498581 
23 1 3.33112 4.0001 5.14994 -0.0395739 0.0156725 0.0218989 
24 1 -3.25377 3.23033 -2.6442 -0.0251987 -0.0482649 -0.0143231 
25 1 2.45896 1.46149 1.32932 0.033079 -0.0182188 -0.00491867 
26 2 -0.0538096 -1.10102 -3.72984 -0.0659896 -0.0469757 -0.0145366 
27 2 -1.94344 -2.03697 -2.66749 0.0163989 -0.040079 -0.0416734 
28 2 -2.16025 -4.75457 2.24561 -0.0496458 -0.037975 -0.030378 
29 2 5.01047 -3.74071 0.247595 0.0114765 0.0176243 -0.0152826 
30 2 3.40536 -1.32777 1.34737 0.0371485 0.0323926 0.0152567 
31 2 -3.79675 1.77645 -3.87015 -0.0696843 -0.0556962 -0.00165821 
32 2 0.877498 -4.49735 2.02537 -0.0264824 0.0495536 0.0541578 
33 2 3.97022 3.66709 -0.252473 -0.0901947 -0.0170324 -0.0283632 
34 2 -4.03668 -1.35419 -2.50318 0.0144004 0.0155986 0.0352018 
35 2 2.74405 1.84713 0.156931 0.025139 -0.00990281 -0.04413 
36 2 4.17717 -0.585468 -1.64843 0.053472 0.0516147 -0.0250017 
37 2 1.6837 3.29036 -2.31363 -0.0269491 -0.0405801 -0.014017 
38 2 -4.33151 0.316864 0.0656454 0.0946782 0.0250019 0.00185368 
39 2 -0.732187 0.101592 -1.2791 0.0420365 -0.0105749 -0.0485949 
40 2 -0.674873 1.97016 -3.79161 0.0147726 -0.0136913 0.00287415 
41 2 4.42981 3.99019 -3.89421 0.00880628 0.0790494 0.0494562 
42 2 -0.143991 -4.06841 -0.294151 0.0383638 -0.0219915 0.0717 
43 2 -0.447529 -5.06459 -4.17567 -0.04565 -0.0330673 -0.0230536 
44 2 -1.86392 2.0204 0.0455964 0.0262893 0.0427921 0.0452606 
45 2 3.99697 0.236878 -5.39144 -0.00358102 -0.0103058 -0.0714766 
46 2 -4.73167 3.09539 -1.93748 0.00221698 0.0322036 0.0120788 
47 2 3.28315 -3.96506 -2.49957 -0.0134901 0.000204672 -0.0476883 
48 2 -2.00632 -2.02775 0.149893 0.0482932 0.0172034 -0.00861893 
49 2 -3.73133 4.90295 -2.08262 -0.0378962 0.0391768 0.000287091 
50 2 -1.45432 -0.285582 1.23325 0.0222564 0.00781594 -0.0254951 
ITEM: TIMESTEP
500
ITEM: NUMBER OF ATOMS
50
ITEM: BOX BOUNDS pp pp pp
-5 5
-5 5
-5 5
ITEM: ATOMS id type x y z vx vy vz 
1 1 -5.42977 2.61836 -4.21422 -0.0291686 -0.0266912 -0.065484 
2 1 -4.25984 -1.63236 -0.79194 -0.100812 0.0313877 0.0271195 
3 1 5.33331 4.51099 -0.748445 0.00664917 -0.0412562 0.0291469 
4 1 -2.81661 -4.10465 -0.837341 0.0815383 -0.00548298 0.0551973 
5 1 -0.167127 3.56933 -3.42375 -0.0228357 0.0178096 0.0582727 
6 1 2.31024 2.18593 -1.62114 0.0189654 0.00774878 -0.0336256 
7 1 4.65912 -0.569331 2.48865 -0.0327484 0.0568141 0.0583976 
8 1 3.65417 3.8285 -2.66847 0.0339348 -0.0281969 0.00383455 
9 1 5.41442 -0.174127 -3.38502 0.0770342 0.0660981 0.0136632 
10 1 -1.7798 0.787671 2.94399 -0.0521531 -0.0546868 -0.0359563 
11 1 1.42017 -4.05623 -1.60755 0.069831 -0.0976164 0.0437861 
12 1 -2.27825 -4.655 -3.48758 -0.0281427 0.0563911 -0.00918417 
13 1 1.01825 -2.02687 -3.98077 -0.00662003 -0.0209866 0.0652483 
14 1 -1.19376 1.80241 -1.07802 0.00243856 0.0327265 -0.0246537 
15 1 -2.0495 0.519498 0.188861 0.107364 0.0623515 0.0924394 
16 1 -2.42036 -2.27662 1.23908 -0.0249528 0.0376886 -0.017201 
17 1 -1.34814 -1.21629 -1.8775 0.0285591 -0.0964632 0.0173746 
18 1 3.80335 -2.88534 -0.153005 0.0540292 0.00236712 -0.0232484 
19 1 -0.136566 -2.8939 1.03146 0.011296 0.00182768 0.0470249 
20 1 3.94876 0.563133 -0.358055 0.0980443 -0.06536 -0.0329032 
21 1 4.20491 -3.1528 -3.12816 0.019245 -0.0287672 0.0410399 
22 1 0.334181 4.27717 2.50199 0.0397583 -0.0107244 0.0283076 
23 1 2.88312 4.37094 -4.65396 -0.0616076 0.0741159 0.0038397 
24 1 -3.46693 2.65634 -2.47876 -0.0187866 -0.0785503 0.0197511 
25 1 2.63753 1.30423 1.6944 0.00456492 -0.0110172 0.0430939 
26 2 -0.354175 -1.51504 -4.01544 0.00544697 -0.0354304 -0.0396787 
27 2 -1.94456 -3.08326 -2.72145 0.00428157 -0.145332 0.0195947 
28 2 -2.42339 -4.90572 1.86166 -0.0123414 0.00781066 -0.0470905 
29 2 -4.8175 -3.40016 -0.273339 0.0295975 0.0448606 -0.0746397 
30 2 3.87682 -1.01143 1.30172 0.0422918 0.0322347 -0.0357792 
31 2 -4.294 1.22456 -3.79148 -0.0549361 -0.0314792 0.0156146 
32 2 0.707165 -3.7665 2.53974 -0.0314878 0.0685208 0.0424902 
33 2 3.02918 4.08622 -0.80108 -0.081709 0.0731384 -0.0821188 
34 2 -3.78457 -1.37319 -2.23732 0.0218619 0.00176913 0.0108184 
35 2 2.50446 1.4132 -0.344432 -0.0677916 -0.0558862 -0.00630937 
36 2 4.17034 0.105474 -1.88125 -0.033456 0.0745354 -0.0242659 
37 2 1.49279 3.09656 -2.73678 -0.00167243 0.000346817 -0.067466 
38 2 -3.99524 0.509804 0.330168 0.0238645 0.00130466 0.0342918 
39 2 -0.463595 0.267294 -1.67265 -0.00287152 0.0406748 -0.00385158 
40 2 -0.612837 1.98986 -3.70892 -0.00721977 0.0237319 0.0123281 
41 2 4.2381 4.48546 -3.8177 -0.0366107 0.00556797 -0.052066 
42 2 0.343527 -4.45203 -0.288103 0.0604344 -0.00984871 -0.0288037 
43 2 -1.06504 4.50828 -4.13786 -0.0798994 -0.0354099 0.0227999 
44 2 -1.54162 2.46098 0.267934 0.0319352 0.0288463 -0.00226753 
45 2 4.02705 0.026797 3.87232 0.0134206 -0.0283373 -0.0892456 
46 2 -4.72546 3.11662 -1.93969 -0.0110585 -0.00020641 -0.00143758 
47 2 2.87328 -3.94687 -2.72951 -0.0796427 0.0181576 -0.00129951 
48 2 -2.02994 -2.29081 -0.258804 -0.0259615 -0.0409875 -0.0487667 
49 2 -3.59364 5.59033 -2.13856 0.0318269 0.0460923 -0.013563 
50 2 -1.39651 0.000575099 1.46754 -0.0137277 0.0337979 0.0554308 
