ITEM: TIMESTEP
100
ITEM: NUMBER OF ATOMS
50
ITEM: BOX BOUNDS pp pp pp
-5 5
-5 5
-5 5
ITEM: ATOMS id type x y z vx vy vz 
1 1 3.72106 -4.83214 -1.81697 0.0397995 -0.0586819 -0.0822846 
2 1 -3.17707 3.63963 4.15222 0.0186813 0.00761558 -2.89833e-05 
3 1 0.242533 -4.14652 4.14891 -0.0625833 -0.0131401 -0.0150434 
4 1 0.50473 4.67367 1.17861 -0.0624962 0.08195 0.022938 
5 1 -2.95961 -2.46203 -0.621068 0.00788151 0.00867773 -0.0186563 
6 1 -4.85911 2.7937 0.363868 -0.0268666 -0.0744535 0.0277568 
7 1 1.24966 2.25572 0.764589 0.0095322 -0.00299557 -0.0628206 
8 1 3.45151 0.680236 4.17045 0.0915572 0.0607304 -0.0219047 
9 1 -1.37929 -2.24901 -3.1727 -0.049668 0.0781431 -0.0912098 
10 1 3.50921 2.87705 -2.65314 -0.0240688 -0.0416127 -0.0424815 
11 1 4.05762 -2.16872 1.17453 -0.0203228 -0.00701692 -0.0304532 
12 1 -4.42217 -1.05677 4.5854 -0.00268954 0.0320598 -0.0177437 
13 1 2.36296 -1.86166 4.37026 -0.0890065 0.0729414 0.0169867 
14 1 -1.9791 -3.18472 4.51159 0.0121546 -0.00300058 0.00615423 
15 1 4.62893 2.39456 3.58667 -0.0129946 -0.0119304 -0.024532 
16 1 1.36084 -4.43982 -3.89191 0.0405213 0.00585475 0.0497908 
17 1 -3.62358 -3.31744 -2.71445 0.0296628 -0.0250692 -0.0271681 
18 1 -4.29527 -0.567324 1.58747 0.0624232 0.0161343 0.0371504 
19 1 0.68429 3.53142 3.90297 0.00960228 0.0413175 -0.0143234 
20 1 -3.75919 3.3819 -2.07522 -0.0542575 0.0182452 -0.0048311 
21 1 -0.250647 3.9057 -0.791297 -0.0109194 -0.0270332 0.00629381 
22 1 -2.37257 1.85345 -2.0016 0.0219345 0.00934942 -0.0616132 
23 1 -3.38365 1.31531 -4.2724 -0.0614423 -0.0611858 -0.0513844 
24 1 -3.05464 4.76863 0.824426 0.0081431 -0.0197679 0.0122831 
25 1 3.82253 0.809979 0.648104 0.058983 0.0200886 -0.062468 
26 2 3.20152 2.49411 3.19277 0.0312817 -0.0446778 -0.0594713 
27 2 -3.51149 2.62982 -0.549982 0.000367445 -0.00203219 0.159963 
28 2 -3.34568 -3.91558 4.73411 -0.01937 0.0225278 -0.0220341 
29 2 -3.41239 -2.40551 -3.86913 -0.0103526 -0.0504862 0.0172519 
30 2 -3.35036 -0.811329 0.187934 -0.0347028 0.0123482 0.0991076 
31 2 -2.24995 -3.78862 -2.26074 0.0188769 -0.0329455 0.00406699 
32 2 -4.75946 0.969356 4.62576 -0.0539578 0.0856005 0.00797598 
33 2 2.65604 4.8959 -3.25326 -0.000949236 0.0697611 0.016867 
34 2 -4.41177 4.47812 1.03562 0.0257102 -0.0286995 0.057908 
35 2 -4.06099 4.79535 -3.07278 -0.00550892 0.0179666 0.0744885 
36 2 0.502695 -5.1742 2.82977 0.0528051 -0.104469 -0.00224771 
37 2 2.71755 1.70576 0.858875 -0.0237066 0.0119766 -0.026026 
38 2 1.29669 -2.97833 4.56556 -0.0463595 0.00896243 0.00787775 
39 2 3.23784 -0.789428 0.524494 -0.0068158 0.00279699 -0.0324339 
40 2 -2.33182 0.941994 -3.30028 0.00210493 0.0552052 0.0592191 
41 2 4.17046 -1.0142 3.44086 -0.0329512 -0.105088 -0.0649528 
42 2 2.58274 -0.115707 4.83428 0.0570025 -0.0231788 0.0402904 
43 2 -0.0139563 2.36252 3.41974 0.0261613 0.00677025 0.0425637 
44 2 -0.977233 4.52727 0.326871 -0.0434267 0.0402689 -0.0026967 
45 2 0.905574 3.83418 -0.140525 0.0199756 0.0347498 0.0149795 
46 2 -0.0420545 2.64454 -1.6643 0.048148 -0.108607 -0.0766535 
47 2 4.29325 2.95047 -1.29947 0.0347223 0.0367559 -0.00863881 
48 2 -4.4473 1.87158 2.35595 0.0190632 0.0321692 0.0809488 
49 2 -0.681678 -4.97498 -4.9316 -0.0091339 0.00427554 -0.0269778 
50 2 -3.55268 2.76009 5.19161 0.0174549 -0.049171 0.0882173 
ITEM: TIMESTEP
200
ITEM: NUMBER OF ATOMS
50
ITEM: BOX BOUNDS pp pp pp
-5 5
-5 5
-5 5
ITEM: ATOMS id type x y z vx vy vz 
1 1 4.16723 -5.30126 -2.62981 0.0305889 -0.0130494 -0.0672743 
2 1 -2.93608 3.79296 4.38834 0.0281988 0.0135304 0.0474568 
3 1 0.016127 -4.09328 3.73393 0.0225389 0.0243242 -0.039365 
4 1 -0.103493 5.32078 1.38541 -0.0464845 0.0273677 -0.00229817 
5 1 -2.79919 -2.22074 -0.658329 0.017805 0.0240363 0.00255041 
6 1 -4.84552 2.71721 0.795864 0.031315 0.0533879 0.0639643 
7 1 1.42551 2.45068 0.128138 0.0281784 0.0476063 -0.0535859 
8 1 3.69208 0.763626 3.87356 -0.0648253 -0.0316804 -0.03572 
9 1 -2.047 -1.48015 -3.83957 -0.0664539 0.0960805 -0.0350702 
10 1 3.23928 2.34349 -2.97635 -0.0259116 -0.0688889 -0.0208946 
11 1 3.6365 -2.04768 1.01365 -0.0378313 0.0206676 0.0168358 
12 1 -4.7844 -1.0657 4.39626 -0.0733583 -0.0570723 -0.0179519 
13 1 1.6132 -1.08859 4.55778 -0.0629332 0.0620701 0.0275661 
14 1 -2.27258 -3.51444 4.67339 -0.03226 -0.0506401 0.0236413 
15 1 4.81884 2.81165 3.26989 0.0196552 0.0907902 -0.0343236 
16 1 1.53784 -4.21825 -3.55242 -0.0108187 0.0432908 0.0103466 
17 1 -3.41973 -4.17432 -3.24245 0.0295307 -0.0961368 -0.0472828 
18 1 -3.63262 -0.0833305 2.21522 0.0590012 0.0787642 0.0727112 
19 1 0.794455 3.49451 3.91102 0.0134809 -0.0432023 0.0104893 
20 1 -4.31312 3.60186 -2.00866 0.0140392 -0.0257001 0.0199315 
21 1 -0.477393 3.60132 -1.03522 -0.00802789 -0.00646239 -0.0201583 
22 1 -1.70627 2.09497 -2.09816 0.0845151 0.0173586 -0.00540759 
23 1 -3.87094 1.0344 -4.65536 -0.0125254 0.034789 0.0071355 
24 1 -2.77906 4.31715 0.828803 -0.00150072 -0.0769222 0.00372692 
25 1 3.81581 0.577765 0.0698462 -0.051788 -0.0558456 -0.0525489 
26 2 3.33965 1.95817 2.93476 0.0150411 -0.061359 -0.00139788 
27 2 -3.27131 2.5409 0.564161 0.0413035 -0.01429 0.0589705 
28 2 -3.38819 -4.0184 4.04086 -0.00923548 -0.0441359 -0.0839471 
29 2 -3.21555 -2.08461 -3.70342 0.030058 0.0542462 0.00205846 
30 2 -3.71694 -1.10206 0.893012 -0.0256416 -0.0588425 0.0342982 
31 2 -1.93363 -3.63695 -1.95931 0.0213954 0.0473224 0.0336883 
32 2 -5.26991 1.41529 4.91828 -0.0325597 0.0217935 0.046009 
33 2 2.88811 5.38052 -2.86431 0.0318139 0.0306038 0.0422218 
34 2 -4.34969 4.29883 1.63587 -0.00403722 -0.0058665 0.0599521 
35 2 -4.45445 5.13528 -2.14514 -0.0451181 0.0836746 0.0727918 
36 2 0.988459 4.45468 2.53946 0.0240192 0.0357004 -0.0389008 
37 2 2.74401 1.72915 0.33314 0.0428441 -0.0177475 -0.080092 
38 2 0.774007 -2.95346 4.72485 -0.0509399 0.00947892 0.0155478 
39 2 3.56197 -0.83077 0.266771 0.0494607 0.00202099 -0.0326133 
40 2 -2.53968 0.856195 -3.09942 -0.0342585 -0.0762205 -0.00244203 
41 2 4.17465 -2.0137 2.67724 0.0214238 -0.0790216 -0.0785439 
42 2 3.02775 -0.433503 5.22124 0.0428742 -0.034185 0.0148961 
43 2 0.143907 2.20274 3.87652 0.00455313 -0.0356658 0.0545093 
44 2 -1.60211 5.02492 0.491084 -0.0310909 0.0487844 0.0254957 
45 2 1.32525 4.10734 0.255714 0.00769474 0.0143815 0.0213419 
46 2 0.166042 1.70524 -2.27264 -0.00403017 -0.0599575 -0.0289122 
47 2 4.43772 3.30916 -1.66143 -0.0411307 0.00269794 -0.0513954 
48 2 -3.97718 1.93128 2.73333 0.0758499 -0.0350204 0.0191198 
49 2 -0.814425 -4.84644 -5.16141 -0.0330473 0.0135615 -0.0267078 
50 2 -3.31241 2.72356 -4.04251 0.018629 0.0495827 0.049577 
ITEM: TIMESTEP
300
ITEM: NUMBER OF ATOMS
50
ITEM: BOX BOUNDS pp pp pp
-5 5
-5 5
-5 5
ITEM: ATOMS id type x y z vx vy vz 
1 1 4.13154 4.83416 -3.02777 -0.0261264 0.0236041 -0.000113578 
2 1 -2.53795 3.82469 4.82748 0.0544123 -0.00442778 0.0212302 
3 1 0.388838 -3.87415 3.71781 0.0346398 0.0160018 0.0262595 
4 1 -0.294572 -4.7525 1.15066 0.0218189 -0.026468 -0.0172482 
5 1 -2.68737 -2.18662 -0.647199 0.00204108 -0.0191864 0.000582657 
6 1 -4.59288 2.95726 1.2023 -0.00296507 -0.0474466 -0.0160829 
7 1 2.12811 2.95431 -0.226518 0.104172 0.047204 -0.0285988 
8 1 3.07602 0.544159 3.86486 -0.0332427 -0.00472257 0.0266376 
9 1 -2.32489 -0.284302 -4.07859 0.00198872 0.0451926 -0.0687988 
10 1 3.16684 1.6541 -3.11913 0.0199803 -0.054935 -0.0126586 
11 1 3.5139 -1.89552 1.29483 0.0102896 0.0188177 0.00752394 
12 1 -5.76216 -1.96116 4.25947 -0.106947 -0.104008 -0.0150184 
13 1 1.10203 -0.705642 5.01204 -0.0460075 0.0119952 0.0583069 
14 1 -2.36479 -3.82519 4.65775 -0.00983624 0.0118239 -0.0395494 
15 1 4.9258 3.51914 3.20429 -0.0126965 0.0467291 0.0711026 
16 1 1.50084 -3.68171 -3.4996 0.00481629 0.0615945 0.00266418 
17 1 -3.11901 -4.8234 -3.10661 0.0242653 -0.0350132 0.0717923 
18 1 -3.06995 0.640586 2.47302 0.0644664 0.0183261 -0.0334365 
19 1 0.904337 3.12064 3.75334 0.000124425 -0.0350021 -0.0326874 
20 1 -3.88863 3.15829 -1.73925 0.0256905 -0.0545927 0.021355 
21 1 -0.30627 4.02908 -0.969928 0.0342436 0.0699589 0.0239601 
22 1 -1.18421 1.57208 -2.73242 -0.00487028 -0.0851432 -0.100896 
23 1 -3.89775 1.73808 -4.25575 -0.0222607 0.0849586 0.0511528 
24 1 -2.70648 3.84637 1.11063 0.0595536 0.0277197 0.0550915 
25 1 3.35224 0.304405 -0.489099 -0.0299341 -0.0334619 -0.0557441 
26 2 3.61626 1.62391 2.74557 0.0325707 -0.0102361 -0.0355648 
27 2 -2.90943 2.44768 0.643427 0.0141057 -0.0174531 -0.0274438 
28 2 -3.37345 -4.63746 3.62529 0.0128219 -0.0697206 0.0151693 
29 2 -3.28047 -2.04104 -4.0173 -0.0073893 -0.0223555 -0.0712154 
30 2 -3.59651 -1.52314 1.17919 0.0549509 -0.0223529 0.0146596 
31 2 -1.87091 -3.07027 -1.64769 -0.00134647 0.0617357 0.0357988 
32 2 4.42813 1.61781 5.4204 -0.0255491 0.0248718 0.0667859 
33 2 2.77899 -4.25861 -2.78702 -0.0445584 0.0401789 -0.0278697 
34 2 -4.5019 4.0179 2.13082 -0.0136163 -0.035681 0.0168436 
35 2 -4.5164 -4.25566 -1.8296 0.0213108 0.0167582 -0.0101832 
36 2 0.772561 5.09293 2.70136 -0.0541015 0.0746025 0.0493907 
37 2 3.03231 1.75203 -0.562153 0.00441378 0.0306626 -0.0878863 
38 2 0.464404 -2.69801 4.86778 -0.00576322 0.0389158 0.018239 
39 2 3.89094 -1.1584 -0.105278 0.00762697 -0.0453004 -0.0363574 
40 2 -2.87192 0.261689 -3.08003 -0.0559345 0.0363144 0.0524994 
41 2 4.25955 -2.64935 2.28599 -0.0102494 -0.0599539 0.0212646 
42 2 3.29891 -0.869411 -5.10559 0.00348021 -0.0496867 -0.0767638 
43 2 0.216318 1.79667 4.46258 0.0197678 -0.0370107 0.0577103 
44 2 -1.70112 -4.71339 0.819319 -0.0160897 -0.00951258 0.0298259 
45 2 0.946056 4.08715 -0.0385491 -0.0818956 -0.0121393 -0.0656306 
46 2 0.0529792 1.46631 -2.29225 0.0257757 -0.00593539 0.0204403 
47 2 3.88854 3.01946 -2.48836 -0.0363084 -0.0342129 -0.113772 
48 2 -3.4535 1.61917 3.33922 0.0248128 0.0309439 0.121643 
49 2 -1.35699 -4.7778 4.47527 -0.0482933 -0.0147157 -0.0289773 
50 2 -3.17139 3.63069 -3.63755 0.0118408 0.111764 0.0445673 
ITEM: TIMESTEP
400
ITEM: NUMBER OF ATOMS
50
ITEM: BOX BOUNDS pp pp pp
-5 5
-5 5
-5 5
ITEM: ATOMS id type x y z vx vy vz 
1 1 3.8065 5.02328 -2.8016 -0.0307979 0.0135722 0.0268967 
2 1 -2.08267 3.86832 4.81626 0.00734364 -0.00224564 -0.000240015 
3 1 0.468869 -3.53674 4.25006 -0.0220887 0.0298087 0.0486448 
4 1 0.142836 -4.93505 1.35289 0.0486264 -0.0134493 0.0400853 
5 1 -2.91455 -2.33971 -0.314946 -0.0318572 -0.00558653 0.0668651 
6 1 -4.69127 2.20511 1.02486 -0.0103674 -0.071825 0.00759949 
7 1 2.97649 3.44208 -0.634566 0.0569587 0.0308311 -0.0565809 
8 1 3.19295 0.638707 4.04203 0.0484323 0.00853859 0.00246238 
9 1 -2.72475 -0.440199 -4.88567 -0.094892 -0.0528544 -0.0851202 
10 1 3.45241 1.44437 -3.17067 0.0109067 0.020213 0.0225305 
11 1 3.91871 -1.8417 1.26421 0.0604904 -0.0125501 -0.00205801 
12 1 3.30394 -3.01092 3.94065 -0.0885839 -0.0832033 -0.0310106 
13 1 0.630956 -0.769299 -4.49018 -0.040719 -0.0048618 0.0305008 
14 1 -2.73477 -3.49544 4.16054 -0.0523902 0.0190962 -0.0445317 
15 1 4.92346 3.89853 4.09873 0.0343103 0.0363389 0.0616868 
16 1 1.39863 -2.93705 -3.57085 -0.0206202 0.0810123 -0.00780195 
17 1 -2.94744 -4.50847 -2.09945 0.0231056 0.0678795 0.096243 
18 1 -2.5587 0.887043 2.10692 0.0397563 0.0313871 -0.0385924 
19 1 0.737789 2.69271 3.57004 -0.0286409 -0.0534687 0.0065158 
20 1 -3.66529 2.54575 -1.51435 0.0389998 -0.072736 0.028056 
21 1 -0.542368 4.72321 -1.35729 -0.048739 0.0623756 -0.0651236 
22 1 -1.10813 0.925385 -3.43416 0.0334334 -0.0230525 -0.0226326 
23 1 -4.40997 2.47 -3.92171 -0.0502221 0.0589978 0.0112413 
24 1 -2.32047 4.12845 1.89338 -0.0145321 0.00259026 0.0985259 
25 1 3.15557 -0.0237957 -0.977194 -0.0143913 -0.0231879 -0.0403416 
26 2 3.85247 1.49182 2.49238 0.0153031 -0.0234646 -0.0131039 
27 2 -3.05068 2.4086 0.385611 -0.0392554 -0.00346129 -0.0235971 
28 2 -3.5685 -5.3755 4.08082 -0.0526326 -0.074266 0.0582932 
29 2 -3.11576 -2.25867 -5.03457 0.042567 -0.00836567 -0.123803 
30 2 -2.83326 -1.59776 1.13057 0.0815355 0.00247833 -0.0233395 
31 2 -1.72696 -2.6306 -1.4264 0.0192652 0.0204484 0.00971067 
32 2 4.39817 1.46868 -4.28811 0.0309186 -0.0751465 -0.0381908 
33 2 2.4691 -4.00176 -3.18245 -0.0116319 0.0118929 -0.043746 
34 2 -4.65642 3.51844 1.91685 -0.0208483 -0.0607149 -0.030687 
35 2 -4.34513 -4.42406 -2.12397 -0.0233342 -0.0258618 -0.0232804 
36 2 0.329689 -4.49006 2.77666 -0.0228976 0.0280117 -0.0196233 
37 2 3.14531 1.78721 -1.28428 0.0280403 -0.0222666 -0.0558102 
38 2 0.651362 -2.22446 5.2059 0.0355871 0.0469686 0.0524227 
39 2 3.697 -1.36873 -0.342628 -0.0354815 0.000299442 -0.00533438 
40 2 -3.1874 1.17748 -2.74917 -0.00786015 0.125867 0.00866973 
41 2 3.87636 -3.08412 2.73528 -0.0495388 -0.0315332 0.027317 
42 2 3.02756 -1.18238 4.03956 -0.0465908 -0.0127753 -0.0803179 
43 2 0.540048 1.44001 4.91317 0.0368945 -0.0413798 0.0270534 
44 2 -1.61529 -4.90988 0.931656 0.0488913 -0.00902724 -0.0139817 
45 2 0.703352 3.92372 -0.167273 0.0109375 -0.000589658 0.0217096 
46 2 0.212382 1.38793 -2.20007 -0.0125134 -0.0213695 -0.0169036 
47 2 3.61839 3.32105 -3.34004 -0.023211 0.108538 -0.04439 
48 2 -3.06593 1.96465 4.72568 0.0557868 0.0318766 0.147978 
49 2 -1.22601 -5.03289 4.52083 0.0643992 0.000768655 0.0242498 
50 2 -3.04305 4.12471 -3.32247 0.022148 -0.0105475 0.0248841 
ITEM: TIMESTEP
500
ITEM: NUMBER OF ATOMS
50
ITEM: BOX BOUNDS pp pp pp
-5 5
-5 5
-5 5
ITEM: ATOMS id type x y z vx vy vz 
1 1 3.63957 -4.60877 -2.80431 -0.00119442 0.073071 -0.0281263 
2 1 -2.29606 3.75255 5.28927 -0.0185617 -0.0128356 0.105227 
3 1 -0.12345 -3.5475 4.4229 -0.0844521 -0.0232758 -0.00115526 
4 1 0.423529 -5.15314 1.38365 0.00371284 -0.0184075 -0.0217009 
5 1 -2.89864 -2.3399 0.257862 0.0373145 0.00645453 0.0435941 
6 1 -4.95538 1.68258 1.33278 -0.0440673 -0.0345267 0.0429704 
7 1 3.32819 3.38976 -1.19226 0.0249071 -0.0345438 -0.0430401 
8 1 3.83346 0.581349 3.91189 0.061253 -0.0211457 -0.0256429 
9 1 -3.85188 -1.0026 -5.69579 -0.116156 -0.0476088 -0.0755726 
10 1 3.44994 1.88805 -3.10371 -0.00446068 0.0467471 -0.0468452 
11 1 4.31267 -2.05753 1.32147 -0.000525958 -0.0275038 0.0136177 
12 1 2.36337 -3.45521 3.83548 -0.0811925 -0.0110793 -0.0243804 
13 1 0.419221 -0.326195 -4.50139 0.00762933 0.0539845 -0.0287208 
14 1 -3.22119 -3.67006 3.73849 -0.0405253 -0.019781 -0.0306929 
15 1 4.76948 4.17473 4.39996 -0.0738258 0.0254379 0.00813455 
16 1 1.61236 -2.55821 -3.17458 0.0465402 0.00977034 0.0630461 
17 1 -3.0476 -3.90924 -1.53107 -0.0506992 0.0437382 0.0143234 
18 1 -2.19737 1.16566 1.51137 0.0296455 0.0212843 -0.0829728 
19 1 0.474821 2.0043 3.96503 -0.0191801 -0.0806939 0.0661997 
20 1 -3.03408 1.88233 -1.07322 0.0775852 -0.0508951 0.04889 
21 1 -0.727486 5.15226 -1.6924 0.00300284 0.0261622 -0.00937298 
22 1 -0.923591 1.28186 -3.46531 -0.0360046 0.0951268 -0.0185392 
23 1 -4.29897 2.84679 -3.73393 0.0832951 0.0190137 0.0465918 
24 1 -2.6335 4.24999 2.57314 -0.0377043 0.0107408 0.0338417 
25 1 3.04255 -0.147102 -1.23127 -0.00307294 -0.00355308 -0.00880985 
26 2 4.00923 1.03732 2.45003 0.0253965 -0.0632637 -0.00189 
27 2 -3.48199 2.01904 0.170884 -0.0363959 -0.0815768 0.0157412 
28 2 -3.50379 4.18564 4.46486 0.0526808 -0.0102076 0.00432463 
29 2 -2.66402 -1.96637 3.80775 0.0331499 0.0288907 -0.107293 
30 2 -2.15669 -1.36199 1.05317 0.0541845 0.0528661 0.0132408 
31 2 -1.86458 -2.83792 -1.32106 -0.0494494 -0.0674807 0.0122894 
32 2 4.48417 0.764586 -4.70753 -0.00902848 -0.0512313 -0.0359483 
33 2 2.33861 -3.73479 -3.61262 -0.00826898 0.037589 -0.0368389 
34 2 -4.77291 3.14876 1.7693 -0.00174757 -0.00459537 0.0100653 
35 2 -4.89046 -4.52734 -2.10976 -0.0649576 0.00730519 0.0259147 
36 2 0.446449 -3.99058 2.81659 0.0431581 0.0650528 0.0185686 
37 2 3.5596 1.50601 -1.71841 0.0398836 -0.0267693 -0.0123767 
38 2 0.779013 -1.96678 -4.4868 -0.0167817 0.0179526 0.0139204 
39 2 3.42427 -1.29362 -0.180927 -0.0126623 0.0110201 0.0314895 
40 2 -3.47527 2.22893 -2.45326 -0.0797129 0.0590554 0.0393666 
41 2 3.66211 -3.45578 2.48213 -0.00615654 -0.0375478 -0.0378956 
42 2 2.56351 -1.13831 3.40558 -0.0375107 0.0135536 -0.0482799 
43 2 0.780256 0.92925 4.9823 0.00553424 -0.0485753 -0.00959345 
44 2 -1.24033 -5.1163 0.872203 0.0121548 -0.0271449 0.00984415 
45 2 0.900463 4.18361 0.0173768 0.0387433 0.0407458 0.0123157 
46 2 -0.0460562 0.966338 -2.51983 -0.00786019 -0.0627272 -0.0149857 
47 2 3.68248 4.15401 -3.73477 0.037293 0.0227804 -0.0471708 
48 2 -2.27441 2.24439 5.65586 0.115324 0.00877274 0.0166065 
49 2 -0.652844 5.06556 4.8433 0.0336007 0.00681184 0.0418992 
50 2 -2.57122 4.16758 -2.94896 0.0761667 0.0630425 0.0458215 
