ITEM: TIMESTEP
100
ITEM: NUMBER OF ATOMS
50
ITEM: BOX BOUNDS pp pp pp
-5 5
-5 5
-5 5
ITEM: ATOMS id type x y z vx vy vz 
1 1 -4.72395 0.0199929 0.566562 0.0242886 -0.00522462 0.0302319 
2 1 -4.48794 3.96809 -3.07243 -0.011243 0.00110602 0.03284 
3 1 -2.46603 4.43237 -4.26515 0.0154996 -0.032392 -0.00613312 
4 1 1.61487 -0.652176 0.0123658 0.0452467 -0.0310595 -0.00240264 
5 1 -0.974058 5.1407 0.412395 -0.0232259 0.0417881 -0.0230344 
6 1 -4.22553 -3.34426 4.03905 -0.0260116 0.0172164 0.0354698 
7 1 -4.46261 4.17585 5.00694 -0.00198086 -0.0248195 -0.0240804 
8 1 -2.56901 0.961759 -1.25278 0.0362645 -0.0427322 0.0488271 
9 1 1.33572 4.80221 2.3047 -0.027805 0.021555 0.0097535 
10 1 4.54626 -5.01281 2.94921 -0.0449272 -0.0130944 -0.0558264 
11 1 2.74665 -3.49948 2.05698 -0.0446344 -0.0127204 -0.0218773 
12 1 3.4985 5.1018 -4.91218 0.0491916 0.0154445 -0.0228234 
13 1 -4.12183 -1.23779 -1.41691 -0.000173691 0.0678024 0.0143701 
14 1 -0.104618 -4.12088 -3.21798 0.0697853 0.00275612 -0.00223229 
15 1 4.98639 2.00371 -0.968234 0.0251151 0.00247483 0.0322511 
16 1 1.135 3.04179 -0.390394 0.0378712 -0.0306745 -0.0127 
17 1 3.83755 4.74121 -0.124986 0.0258106 0.0267658 0.0239327 
18 1 -1.58449 1.54587 2.87067 -0.0322065 0.0503561 -0.0365796 
19 1 -0.945623 4.01555 3.09494 0.062824 0.0258428 -0.0427297 
20 1 -4.94251 -3.22893 1.27034 -0.0361357 -0.0197963 0.0175915 
21 1 -2.79797 2.32437 4.7666 -0.0371516 -0.00946756 0.0724592 
22 1 -0.0828939 -3.20417 0.73681 0.0180184 0.0170348 0.00218256 
23 1 -4.05934 2.66258 1.99263 0.0193055 0.0256763 -0.004196 
24 1 -1.36299 -1.89751 -0.826525 -0.0468467 -0.0155652 -0.0241429 
25 1 -1.59789 3.76524 -2.25343 0.00594554 -0.00766636 0.0302382 
26 2 2.02237 0.723972 -0.685605 0.024221 0.0791087 -0.0247496 
27 2 3.16576 -3.69357 3.66094 -0.0339915 0.035818 -0.000693794 
28 2 -4.7331 -1.41362 0.808613 -0.021314 -0.0727103 -0.0308304 
29 2 -2.88532 2.65129 -1.29342 0.0259685 0.015828 0.00502618 
30 2 -1.82634 5.08345 -1.13989 -0.0550005 0.0263663 -0.017676 
31 2 4.92959 1.85671 0.366839 0.0139618 0.00463558 -0.0391392 
32 2 -0.920638 -4.13134 2.29954 -0.0329632 -0.0236539 -0.0168663 
33 2 -4.40379 3.80488 3.30789 0.0365547 -0.033999 0.00821298 
34 2 0.383299 -3.76322 -1.31235 -0.0102568 -0.00433852 0.00755748 
35 2 -4.57638 -3.63398 2.81873 0.0302703 0.0113926 -0.0121308 
36 2 -0.922378 4.97551 -4.12405 0.0171892 0.0449454 0.0329098 
37 2 3.64144 -5.2845 1.39181 0.0205215 -0.0538117 0.00323216 
38 2 4.63139 4.69319 -1.64169 -0.0281246 0.0485827 -0.01579 
39 2 1.37345 -3.99083 1.137 0.0684972 0.0476664 -0.0587918 
40 2 -3.51151 2.83833 -3.69521 0.0182893 -0.0278443 0.0818727 
41 2 0.115072 3.63864 0.466717 -0.0180541 -0.0633795 -0.0175035 
42 2 -1.91129 3.05704 3.3604 0.0253555 -0.0111366 -0.0482064 
43 2 1.38815 3.722 3.72645 -0.0128077 -0.06016 0.0056304 
44 2 -3.70463 -4.69854 -4.39379 -0.0251506 0.0188288 -0.016138 
45 2 3.94421 4.00316 -3.99029 -0.0465168 0.0357601 0.00816695 
46 2 -0.0522927 0.20271 2.33815 -0.036065 -0.00806031 0.0450578 
47 2 -2.22784 -0.765922 -1.33607 -0.00346618 -0.016459 0.0425918 
48 2 -0.246936 -1.41077 0.196331 0.0236025 -0.072677 0.00913496 
49 2 -3.97381 0.205446 -1.07372 -0.0334119 0.0190495 -0.0259564 
50 2 -3.39461 1.31284 3.16896 -0.0501333 -0.0103585 0.00368922 
ITEM: TIMESTEP
200
ITEM: NUMBER OF ATOMS
50
ITEM: BOX BOUNDS pp pp pp
-5 5
-5 5
-5 5
ITEM: ATOMS id type x y z vx vy vz 
1 1 -4.55017 0.126989 0.958661 0.00224029 0.0281415 0.0444778 
2 1 -4.81442 4.11649 -2.35999 -0.0310473 0.0366216 0.0430573 
3 1 -2.03921 4.59921 -4.35212 0.0335674 0.0431301 -0.00723211 
4 1 1.82157 -0.737064 -0.0993511 0.00278736 0.00917583 -0.0220811 
5 1 -1.35832 -4.96782 -0.0311912 -0.0275386 -0.0179146 -0.0317285 
6 1 -4.25959 -3.18359 4.60149 0.0107822 -0.00622539 0.042348 
7 1 -4.64474 3.78539 -5.35025 -0.0329412 -0.0180281 0.0247659 
8 1 -2.25882 0.733259 -0.833785 0.0304879 0.00962706 0.0329512 
9 1 1.2893 4.67471 2.35674 0.0470048 -0.0434686 -0.0082039 
10 1 4.35497 4.6841 2.51508 0.029366 -0.0262494 0.020419 
11 1 2.52437 -3.30281 2.13785 0.0249517 0.0527588 0.0525432 
12 1 3.40006 -4.45901 -5.06875 -0.0452523 0.0586256 -0.00866362 
13 1 -4.02307 -0.923398 -1.34386 0.00540596 0.00481207 0.00263879 
14 1 0.527434 -4.07897 -2.90756 0.0385007 -0.00204118 0.0588562 
15 1 5.46608 2.06104 -1.16614 0.0628497 0.00867675 -0.0138203 
16 1 1.47628 2.53993 -0.414198 0.0155537 -0.0533936 0.0148439 
17 1 4.071 4.87139 -0.187636 0.00806261 0.00617247 -0.0107921 
18 1 -1.77884 1.55711 2.40852 0.00173913 -0.0353164 -0.0334714 
19 1 -0.653272 4.3197 2.80849 -0.0432609 -0.00761053 -0.0041221 
20 1 -4.93582 -3.02705 1.36306 0.0277517 0.0340315 0.0105459 
21 1 -3.28368 1.85099 5.26809 -0.0470535 -0.0725691 0.0354268 
22 1 0.583444 -2.98322 0.953634 0.0786909 -0.028533 0.0342155 
23 1 -3.96071 2.781 2.14174 -0.00191062 -0.0116194 0.0215319 
24 1 -1.44543 -2.2288 -0.986277 0.0329945 -0.0569024 -0.00467217 
25 1 -1.81869 3.71518 -1.56762 -0.0423193 -0.000784101 0.0651889 
26 2 2.13636 1.45379 -0.769665 0.00254686 0.0559939 0.00355061 
27 2 2.94948 -3.7351 3.54153 -0.0132217 -0.0383334 -0.0219708 
28 2 -4.99394 -2.11429 0.339079 -0.0251166 -0.0259502 -0.0749403 
29 2 -2.4949 2.55192 -1.10905 0.0364504 -0.0477235 0.0443334 
30 2 -2.26106 -4.71068 -1.22759 -0.0404696 0.0105242 0.00282778 
31 2 5.15853 1.87002 0.821124 0.0429378 0.00380451 0.0828994 
32 2 -0.932836 -4.62571 1.78528 0.03553 -0.0549085 -0.0803944 
33 2 -4.31458 3.60374 3.30962 -0.015125 -0.00828817 -0.0441129 
34 2 0.119854 -3.81992 -1.42133 -0.0350099 -0.0143294 -0.0308774 
35 2 -4.47054 -3.69851 2.59968 -0.00679779 -0.0207785 0.0048971 
36 2 -0.873845 5.21407 -3.70172 0.0137489 0.0142228 0.0455111 
37 2 3.74266 4.44083 1.24797 -0.0183887 -0.0154689 -0.0693781 
38 2 4.42864 5.01312 -1.50183 -0.0104016 0.0171968 0.0314605 
39 2 1.91656 -3.57599 0.811933 0.03945 0.0288091 -0.0177947 
40 2 -3.27325 2.95636 -3.50995 0.0159748 0.0401618 -0.0320871 
41 2 -0.0542886 3.24198 0.331249 -0.00628228 -0.0203225 -0.0224229 
42 2 -1.56804 3.06809 3.10903 0.0373058 0.0172247 -0.0159223 
43 2 1.08324 3.55151 3.40309 -0.0454815 0.0318249 -0.067666 
44 2 -4.02858 -4.60363 -4.73276 -0.0290641 0.00525161 -0.0505777 
45 2 3.86031 4.30416 -4.17572 0.0168096 0.0216432 -0.0404789 
46 2 -0.633878 0.382643 2.83703 -0.0814393 0.038123 0.0439616 
47 2 -2.4211 -0.819826 -1.04177 -0.0413409 0.00550588 0.02413 
48 2 0.00192016 -1.95422 0.0604606 0.00543961 0.0193147 -0.0463987 
49 2 -4.57346 0.693286 -1.23314 -0.0526015 0.0249859 -0.015313 
50 2 -3.69746 1.27558 3.12432 -0.00686615 0.000398742 -0.0122594 
ITEM: TIMESTEP
300
ITEM: NUMBER OF ATOMS
50
ITEM: BOX BOUNDS pp pp pp
-5 5
-5 5
-5 5
ITEM: ATOMS id type x y z vx vy vz 
1 1 -4.62023 0.547875 1.42273 -0.0136276 0.0167355 0.0480341 
2 1 -4.90338 4.58201 -2.65026 0.00688932 0.0567532 -0.0748846 
3 1 -1.97462 4.91129 -4.30761 -0.0110074 0.0144324 0.0208889 
4 1 1.70262 -0.598794 -0.427059 -0.0243505 0.0190577 -0.042047 
5 1 -1.25317 -4.84794 0.0550994 0.00901455 0.0179653 -0.0186993 
6 1 -4.13191 -3.26573 4.69583 0.00764624 0.00338797 -0.0258415 
7 1 -4.82043 3.89906 5.1178 0.0217193 0.0244181 0.0265642 
8 1 -1.80555 0.695381 -0.529963 0.0648249 -0.060551 0.0319468 
9 1 2.13774 4.29948 1.94351 0.0991446 -0.0221341 -0.0497381 
10 1 4.631 4.75185 2.62095 -0.00209126 0.0646193 -0.00894012 
11 1 3.02189 -2.74362 2.54587 0.0575404 0.036448 0.0215937 
12 1 2.99004 -4.13614 4.96168 -0.0293236 -0.00524715 0.0067077 
13 1 -4.25852 -0.944167 -1.22706 -0.0492273 -0.00641382 0.0259504 
14 1 0.665558 -4.2819 -2.49116 -0.00989789 -0.0384436 0.0230321 
15 1 -3.90202 2.09745 -1.01806 0.0332385 -0.0321304 0.0389299 
16 1 1.1493 2.5855 0.0206342 -0.0125763 0.00297599 0.0427527 
17 1 3.895 5.16755 -0.0250537 -0.0313512 0.0614739 0.0138234 
18 1 -1.79017 1.48865 2.28948 -0.0141511 0.0285249 0.0021472 
19 1 -0.997052 4.27554 2.64322 0.00481906 0.00771529 -0.0397967 
20 1 -4.53541 -2.73563 1.36807 0.0445594 0.0233205 -0.0226458 
21 1 -3.61097 1.27169 -4.47947 -0.0163813 -0.0335661 0.00863273 
22 1 0.720479 -3.27133 0.836134 -0.0110794 -0.0351106 -0.045284 
23 1 -3.8714 2.4798 2.42015 0.0265716 -0.00122187 0.0730062 
24 1 -0.95086 -2.7392 -1.00711 0.0459693 -0.0179954 -0.00368032 
25 1 -2.27082 3.58269 -1.4359 -0.0328936 -0.0150364 -0.0152444 
26 2 2.38384 1.31449 -0.821295 0.00449908 -0.0409127 0.0102933 
27 2 2.81591 -4.28857 3.37573 -0.0167127 -0.0532393 -0.0189042 
28 2 -5.12584 -2.08199 -0.365797 0.00581147 0.0169479 -0.0438554 
29 2 -2.45733 2.00167 -0.638794 -0.0289574 -0.0105083 0.0301158 
30 2 -2.71825 -4.84797 -1.05668 -0.0396803 -0.0465815 0.0328455 
31 2 -4.35941 1.83002 1.16745 0.0367726 0.0043864 -0.0528336 
32 2 -0.404824 -4.82655 1.04816 0.0786626 0.0271248 -0.0182113 
33 2 -4.68038 3.65522 3.13046 -0.0259053 -0.0301796 0.0198897 
34 2 -0.322126 -3.8643 -1.27814 -0.0379542 -0.0013247 0.0673025 
35 2 -4.72835 -3.78475 2.65935 -0.0400077 0.0260037 -0.0129844 
36 2 -0.597999 -4.70722 -3.47021 0.0291826 -0.00359782 -0.0105564 
37 2 3.42246 4.1749 1.1236 -0.0502187 -0.0451546 0.0474264 
38 2 4.38711 -4.7768 -1.48509 -0.00545582 0.0169091 -0.0130892 
39 2 2.52398 -3.27112 0.983696 0.0579704 0.0404804 0.046717 
40 2 -3.27019 3.297 -3.96363 -0.0169196 0.0209138 -0.0414918 
41 2 -0.0540248 3.05043 -0.111001 -0.0267149 -0.0142933 -0.0634768 
42 2 -1.71795 2.8778 2.94824 -0.0677207 -0.0399053 -0.0247245 
43 2 0.585178 3.99536 2.83563 -0.0386658 0.0528613 -0.0479408 
44 2 -4.03007 -4.6687 -5.07972 0.0389516 -0.0218194 -0.00199298 
45 2 3.88091 4.5084 -4.60042 -0.0369928 0.0284069 -0.0198603 
46 2 -1.31417 0.476287 3.31088 -0.0334418 -0.0409601 0.0618893 
47 2 -2.69439 -0.750642 -0.777308 -0.00710534 0.0155837 0.0298152 
48 2 0.182837 -1.59749 -0.263945 0.0396552 0.0380103 -0.0188288 
49 2 -4.87493 0.581865 -1.40224 -0.000394877 -0.0106077 -0.0168737 
50 2 -3.55356 1.11931 3.13013 0.0173636 -0.0385216 0.0221215 
ITEM: TIMESTEP
400
ITEM: NUMBER OF ATOMS
50
ITEM: BOX BOUNDS pp pp pp
-5 5
-5 5
-5 5
ITEM: ATOMS id type x y z vx vy vz 
1 1 -4.67408 0.623655 1.94014 0.0118229 0.0252762 0.0563657 
2 1 -4.93571 5.31809 -3.09784 -0.0234724 0.0780483 -0.0124755 
3 1 -2.14368 4.8792 -4.08427 -0.0154663 -0.0152335 0.0151931 
4 1 1.5221 -0.289779 -0.859966 -0.00575231 0.025634 -0.0451924 
5 1 -1.35005 -4.99644 -0.261328 -0.0194887 -0.041802 -0.0135513 
6 1 -4.1025 -3.3248 4.18695 0.00640831 -0.0121105 -0.0658688 
7 1 -4.488 3.98581 -5.19504 0.0255738 -0.00169647 -0.0564517 
8 1 -1.33106 0.0987115 -0.268259 0.0235796 -0.0311256 0.020184 
9 1 2.05235 4.44407 2.32096 -0.0690469 0.0365507 0.0811823 
10 1 4.49061 5.15389 2.66319 -0.0218165 -0.00428965 0.00542218 
11 1 3.50308 -2.74335 2.62075 0.0358933 -0.0136581 0.00480991 
12 1 2.63097 -4.46198 4.79097 -0.0527926 -0.0466717 -0.0392247 
13 1 -4.58135 -0.775254 -1.02117 -0.00896062 0.0323104 0.00594084 
14 1 0.294514 -4.77897 -2.2517 -0.0549266 -0.0580091 0.0227457 
15 1 -4.15754 1.40355 -0.473567 -0.0291349 -0.0757572 0.0316006 
16 1 1.23036 2.46279 0.249087 0.0026452 -0.018186 -0.00667239 
17 1 3.58386 -4.14959 -0.00870288 -0.0192276 0.0686972 -0.0133582 
18 1 -1.81705 1.23799 2.58782 0.00171829 -0.0655749 0.0558196 
19 1 -0.865671 4.22193 2.16015 0.007559 -0.010433 -0.0517964 
20 1 -4.17593 -2.56748 0.930003 0.0210073 0.0130711 -0.058002 
21 1 -3.62399 1.15388 -4.62665 0.0095365 0.00381406 -0.0334651 
22 1 0.993451 -3.50235 0.38057 0.0743522 0.0205609 -0.0569794 
23 1 -3.65018 2.67823 3.18829 0.00811939 0.0225763 0.0601967 
24 1 -0.767232 -2.07214 -1.05562 0.0148263 0.0846159 -0.00348247 
25 1 -2.37346 3.36978 -1.52041 0.0013037 -0.0589748 0.00560015 
26 2 2.02306 0.847632 -0.464397 -0.0578333 -0.0201738 0.0594587 
27 2 2.81323 -4.56816 3.20188 0.0275371 -0.00685071 -0.0101839 
28 2 4.98346 -2.13471 -0.337025 0.0147865 -0.031111 0.0446372 
29 2 -2.34845 1.97631 -0.664514 0.0337662 -0.017316 -0.0419478 
30 2 -2.8839 -5.45769 -0.707438 0.00892587 -0.049059 0.0324642 
31 2 -4.13038 1.93213 0.758441 -0.0143561 -0.00978859 0.035375 
32 2 0.168913 -4.34442 1.12374 0.00291738 0.0270158 0.0366558 
33 2 -4.99834 3.4108 3.4936 -0.0377852 0.00421063 0.0503564 
34 2 -0.268234 -4.07595 -0.90219 0.0284613 0.0151302 -0.0259136 
35 2 -5.04182 -3.07302 2.4404 -0.00404441 0.0840465 -0.00922888 
36 2 -0.439921 -4.79845 -3.66524 -0.00403575 -0.0145779 -0.0160166 
37 2 3.58821 3.81393 1.0018 0.0286394 -0.00647794 -0.0376734 
38 2 4.2645 -4.72384 -1.64736 -0.0190634 0.0073901 -0.0169735 
39 2 2.95162 -2.93433 1.31014 0.0195862 0.014547 -0.0111181 
40 2 -3.51144 3.26572 -4.09481 -0.0223475 -0.031002 0.00732816 
41 2 -0.414672 3.01391 -0.805124 -0.00415889 0.0167986 -0.0623845 
42 2 -2.38146 3.08093 2.56164 -0.0339764 0.0515553 -0.0447621 
43 2 0.606357 4.20862 2.56404 0.0384192 -0.0308561 0.00255693 
44 2 -3.43696 -4.4923 5.1342 0.0564944 0.0581274 0.0293665 
45 2 3.69521 4.80276 -4.39996 0.0286176 0.0276235 0.0507914 
46 2 -1.37068 0.0302901 3.7859 0.00963205 -0.0287716 0.0288438 
47 2 -2.62696 -0.657687 -0.430101 0.0161242 -0.0101711 0.0406799 
48 2 0.542213 -1.33935 -0.4781 0.00466256 0.00646006 -0.0282343 
49 2 -4.70242 0.600575 -1.64425 0.0192543 0.00601436 -0.0335688 
50 2 -3.84939 0.734886 3.31181 -0.0644837 -0.0203963 0.0109509 
ITEM: TIMESTEP
500
ITEM: NUMBER OF ATOMS
50
ITEM: BOX BOUNDS pp pp pp
-5 5
-5 5
-5 5
ITEM: ATOMS id type x y z vx vy vz 
1 1 -4.72631 0.886949 2.3697 -0.0437596 -0.014737 0.0707313 
2 1 -5.38411 -4.06226 -3.06359 -0.0510735 0.0573475 0.0288505 
3 1 -2.16364 4.75625 -4.00049 0.00681655 -1.97089e-05 -0.000884516 
4 1 1.55071 -0.250688 -1.30206 0.011657 0.00944919 -0.0187375 
5 1 -1.34175 -5.20718 -0.304941 0.0263858 0.0107374 0.000438453 
6 1 -3.85068 -3.3355 3.62162 0.0436512 0.00747886 -0.0339684 
7 1 -4.444 4.27336 5.10605 -0.028264 0.0442001 0.0913853 
8 1 -1.355 0.345636 -0.0282832 -0.0278022 0.0572974 0.023634 
9 1 1.61745 4.91709 2.637 -0.0462687 0.049694 -0.0327683 
10 1 4.24078 -5.43693 2.40541 -0.0246708 -0.108244 -0.0541293 
11 1 3.51876 -2.71607 2.52186 -0.00950715 0.00495673 -0.0329698 
12 1 2.35699 -5.01501 4.77623 0.0197824 -0.0525456 0.0491462 
13 1 -4.62249 -0.984291 -1.126 -0.00125474 -0.0548472 -0.0308356 
14 1 -0.195749 -5.40462 -2.21056 -0.0280329 -0.0492441 -0.0231944 
15 1 -4.02311 1.25186 -0.31168 0.0412656 0.0312003 0.0138274 
16 1 1.19814 2.37648 -0.00101002 -0.0152375 0.0353726 -0.0339302 
17 1 3.8164 -3.55903 -0.279092 0.0684772 0.0444013 -0.0430905 
18 1 -1.87804 0.57607 3.12868 -0.0276905 -0.0400278 0.0134167 
19 1 -0.747629 4.12308 1.85994 0.0128284 -0.0136551 0.00621242 
20 1 -3.7935 -2.53367 0.790624 0.0577634 0.00348032 0.0273077 
21 1 -3.58289 1.21064 -4.89194 -0.00722685 0.00896477 -0.00137436 
22 1 1.37526 -3.20194 -0.00713673 -0.011984 0.0330046 -0.0185592 
23 1 -3.61744 2.81578 3.16235 0.00178838 0.0229616 -0.0568914 
24 1 -0.832197 -1.86122 -1.22154 -0.0368431 -0.0416711 -0.0286233 
25 1 -2.34651 2.68845 -1.43073 0.00626545 -0.0456914 0.00519651 
26 2 1.45394 1.06501 0.256429 -0.0570309 -0.00308789 0.0570843 
27 2 3.21346 -4.39111 3.26919 0.0187096 0.0351121 0.0168411 
28 2 4.962 -2.22514 -0.287416 -0.0159216 0.00731128 -0.0312047 
29 2 -2.15062 1.21085 -1.02879 0.0164156 -0.118652 -0.0131049 
30 2 -2.63815 4.2062 -0.540623 0.0276337 -0.0396337 -0.00545452 
31 2 -4.41077 1.54245 1.33808 -0.0113238 -0.0321145 0.00164925 
32 2 0.0787821 -4.14325 1.46892 -0.0072995 -0.000978653 0.027785 
33 2 -5.22611 3.5843 3.71146 0.00665966 0.0293451 -0.00499594 
34 2 -0.0210896 -3.78914 -1.32902 0.0190507 0.0301142 -0.0372279 
35 2 5.4399 -2.55289 2.61244 0.06325 0.0279066 0.0208384 
36 2 -0.680536 -5.07813 -3.70081 -0.0396339 -0.0438295 0.00569298 
37 2 3.62403 4.12825 0.817016 -0.00964745 0.0614128 0.00821686 
38 2 4.04623 -4.37809 -1.67247 -0.0239859 0.0645873 0.0180551 
39 2 2.77781 -3.04842 0.828538 -0.043711 -0.0267506 -0.0565103 
40 2 -3.5813 2.87574 -4.27126 0.0121882 -0.0367246 -0.0477508 
41 2 -0.160924 3.58834 -1.3245 0.0304253 0.0715153 -0.028012 
42 2 -2.36554 3.56742 2.33622 0.0197555 0.0446715 0.000555231 
43 2 0.535605 3.37473 2.7224 -0.02413 -0.0902365 0.0107934 
44 2 -3.19475 -3.95279 -4.73874 -0.00457149 0.0305009 -0.00612484 
45 2 4.08843 5.24524 -4.16759 0.0319784 0.0419004 -0.0273356 
46 2 -1.30479 -0.118057 4.04616 0.0190326 -0.0331586 0.060729 
47 2 -2.4794 -0.981747 -0.00304221 0.0154429 -0.0501797 0.0438766 
48 2 0.494699 -1.26421 -0.755862 0.0073031 0.0206414 -0.0266624 
49 2 -4.589 0.545957 -1.89955 0.00687374 -0.021858 0.00344488 
50 2 -4.18581 0.823266 3.85389 0.00547073 0.0323216 0.0886322 
