ITEM: TIMESTEP
100
ITEM: NUMBER OF ATOMS
50
ITEM: BOX BOUNDS pp pp pp
-5 5
-5 5
-5 5
ITEM: ATOMS id type x y z vx vy vz 
1 1 3.71374 4.93798 0.170616 0.0156882 0.0621209 0.0266372 
2 1 -0.901039 5.0832 -2.44041 -0.00535002 -0.00767911 -0.0519886 
3 1 2.3352 -0.858455 -1.64411 -0.00139344 -0.0659544 0.0712833 
4 1 2.66777 -1.79596 5.27091 0.0100557 -0.00342559 0.0761999 
5 1 0.668761 -0.401252 -4.8881 0.00609726 0.01597 0.0100476 
6 1 1.16232 0.997875 3.23005 0.0384085 -0.0457665 -0.00957863 
7 1 1.33657 -4.31794 -2.5865 0.0314485 0.0235575 0.010004 
8 1 0.557328 3.10533 -2.77686 -0.0258186 0.00544934 0.053991 
9 1 2.83932 -1.00313 2.79393 -0.0500661 -0.0644674 0.045771 
10 1 1.59087 1.71053 -0.255684 -0.0379832 -0.0142299 -0.016599 
11 1 0.553152 -3.04126 2.19763 -0.00986176 0.0312955 -0.00160446 
12 1 -4.62438 -4.69346 2.35868 -0.0232348 -0.0775527 -0.00793637 
13 1 0.709484 3.73587 4.20231 -0.0744247 0.00998092 -0.0516236 
14 1 0.0975512 -0.460299 1.94647 -0.00325728 -0.0148483 0.0368813 
15 1 4.78966 3.01604 4.40008 0.00304045 -0.0585603 -0.0346506 
16 1 2.55303 4.3238 2.88264 0.0308323 0.0580073 0.0114192 
17 1 4.23463 -2.81361 1.62788 -0.00104409 0.00360716 0.0759852 
18 1 -1.98165 -0.432362 -3.26361 0.0222155 0.00474958 -0.0522499 
19 1 -2.38218 4.32118 -4.46036 -0.0312225 0.0118863 -0.00738871 
20 1 -0.407268 -2.56468 -0.126749 -0.000984257 0.0208273 -0.00193529 
21 1 0.622125 5.52568 -0.176417 0.0189458 0.0405219 -0.0319868 
22 1 -0.519115 -3.45968 5.26403 -0.0313346 0.00102167 0.0205979 
23 1 2.62307 1.35125 -4.57408 0.00646122 0.021153 0.0249955 
24 1 0.0529536 -1.96702 -2.74929 -0.0205221 0.0355687 -0.0748596 
25 1 -2.79495 -3.60822 -2.93589 0.0669023 0.0404687 -0.0194671 
26 2 0.185607 3.88339 -4.2173 0.012095 0.0379772 -0.0180407 
27 2 -0.546704 -0.651096 -3.61298 0.0329011 0.0561408 0.0133742 
28 2 0.780308 1.41741 5.14636 0.00702707 -0.0331493 -0.00907584 
29 2 -2.64456 -1.74262 -3.08198 0.0165999 0.0202307 -0.0249523 
30 2 -2.42435 -5.23886 -2.89087 -0.0603834 -0.0454577 -0.00506959 
31 2 3.99326 3.62212 3.28685 -0.0542085 -0.111004 0.00431773 
32 2 1.79671 -4.07957 0.451131 0.0153953 -0.0317877 -0.0332203 
33 2 0.587085 0.0137836 -0.50291 0.0506491 0.00811762 -0.0554734 
34 2 0.284297 -4.74729 3.69699 -0.0130888 -0.00501175 0.0144598 
35 2 1.56746 2.91168 3.10442 -0.026726 -0.0134412 0.0375106 
36 2 -0.068039 -3.40677 -2.1931 -0.0330331 0.0785246 -0.0255349 
37 2 1.06074 -2.2729 4.95196 0.0195463 0.00409938 0.041388 
38 2 2.14334 -2.88542 -2.59023 0.0202512 -0.0466411 -0.023193 
39 2 3.0942 4.52855 -2.41362 0.0815524 0.0465441 -0.0100758 
40 2 3.20275 -2.23372 3.38578 0.0214087 -0.0332125 -0.0495345 
41 2 -0.894141 -4.36677 0.300151 -0.021435 0.000405783 0.00431151 
42 2 0.48079 -2.29915 0.860118 -0.0228657 0.0292668 0.0269834 
43 2 -3.63043 -2.69591 2.30437 -0.0252087 0.0368653 0.0461349 
44 2 -1.90327 -3.7093 -4.30046 0.0125051 -0.0440706 0.0243938 
45 2 3.81805 -4.74132 1.36896 -0.00280067 0.0137073 0.0319413 
46 2 0.916067 -0.667904 3.07556 -0.0368184 0.00606172 -0.0371826 
47 2 2.44252 -0.293445 -3.83509 0.0731942 -0.0332571 -0.0569742 
48 2 0.0264625 3.70984 -1.63396 -0.0127707 0.0047756 -0.0175602 
49 2 3.90357 2.14646 -5.01131 -0.0385307 0.0337025 0.00842328 
50 2 -3.17315 3.59542 4.62549 0.0511462 -0.0130874 0.010704 
ITEM: TIMESTEP
200
ITEM: NUMBER OF ATOMS
50
ITEM: BOX BOUNDS pp pp pp
-5 5
-5 5
-5 5
ITEM: ATOMS id type x y z vx vy vz 
1 1 3.46787 5.50221 -0.131896 -0.0252137 0.0536188 -0.0463347 
2 1 -1.03165 -5.15068 -2.76401 -0.0123815 -0.0264879 -0.0137274 
3 1 2.08465 -1.59627 -1.06799 -0.0442758 -0.0683533 0.0458815 
4 1 2.6466 -2.12347 -3.87434 -0.005951 -0.0360369 0.0746372 
5 1 0.704743 -0.29917 -4.73068 0.0191473 0.00392046 -0.00714521 
6 1 1.58179 1.2798 3.40407 0.0365054 0.0754025 0.0289457 
7 1 2.00603 -4.24025 -2.63761 0.0846222 -0.0310934 -0.0166174 
8 1 0.434542 2.92735 -2.90352 -0.0100093 -0.012048 -0.0482642 
9 1 2.06746 -1.4936 3.30561 -0.0752213 -0.0478404 0.0659456 
10 1 1.0193 1.40227 -0.454837 -0.0647132 -0.0340907 -0.0184019 
11 1 0.574052 -3.13695 2.41866 0.000199885 -0.0495279 0.0290556 
12 1 -4.7607 -5.57416 2.41186 -0.000234269 -0.0929449 0.0114377 
13 1 -0.0683408 3.81062 3.96257 -0.0592112 0.0110841 -0.00286711 
14 1 -0.344342 -0.751995 1.66714 -0.0615587 0.00849071 -0.0259998 
15 1 4.9502 2.51481 4.10475 -0.000715048 -0.0514622 -0.0106194 
16 1 2.9023 4.66354 2.9059 0.0270327 0.0111189 -0.0010742 
17 1 4.52596 -2.88916 2.38757 0.0989478 -0.032379 0.0428968 
18 1 -1.88563 -0.302028 -3.79057 -0.000932524 0.0213488 -0.0458392 
19 1 -2.60369 4.54872 -4.4276 -0.0368574 0.00860769 -0.00196814 
20 1 -0.72812 -2.36804 -0.402147 -0.047463 0.00803623 -0.036559 
21 1 0.506132 -4.5211 -0.417421 -0.0297439 -0.0466479 -0.0121204 
22 1 -0.330666 -3.53688 -4.98796 0.0578318 -0.031366 -0.0569332 
23 1 2.44925 1.37996 -4.22895 -0.0369874 -0.0291411 0.0372608 
24 1 0.0584559 -1.75231 -3.33883 0.0200464 -0.0171111 -0.0144233 
25 1 -2.32924 -2.95357 -3.09572 0.0373158 0.0515231 -0.00528676 
26 2 0.239249 4.27193 -4.01557 -0.0029027 0.025683 0.0496107 
27 2 -0.185002 -0.174552 -3.49108 0.00562651 0.040287 0.0196141 
28 2 1.13343 0.98804 -5.11784 0.0601914 -0.0237976 -0.0260741 
29 2 -2.52641 -1.6464 -3.2018 0.0152913 0.0366409 -0.015881 
30 2 -2.88275 4.37871 -2.75045 -0.0238532 -0.0300943 0.0193093 
31 2 3.75235 3.06956 2.92248 0.0186084 -0.0121657 -0.060197 
32 2 2.19934 -4.44693 0.0823001 0.0173222 -0.0307795 -0.0452134 
33 2 1.45172 0.146579 -1.04751 0.110193 -0.0076051 -0.0536479 
34 2 0.194275 -4.4491 3.61648 -0.00732408 0.0646122 -0.0294664 
35 2 1.10583 2.70779 3.29187 -0.0709518 -0.0103653 0.000407843 
36 2 -0.504511 -2.91499 -2.30238 -0.0434635 0.0356665 0.00512012 
37 2 0.964852 -2.15073 5.461 -0.0407586 0.0178532 0.0422546 
38 2 2.41556 -2.73387 -2.72584 0.0310771 0.0740198 0.0167044 
39 2 3.64734 4.97393 -2.31337 0.0278844 0.0473589 0.0320524 
40 2 3.27107 -2.58879 3.03397 -0.0871521 0.00472948 0.0177183 
41 2 -0.883231 -4.04725 0.189855 0.0263849 0.067847 -0.0215148 
42 2 0.203152 -1.81627 1.27863 -0.0250731 0.00717387 0.0168518 
43 2 -4.21294 -2.54661 2.63905 -0.0613057 0.0063624 0.0243967 
44 2 -1.67972 -4.22497 -4.19901 0.0339827 -0.0390561 0.000541016 
45 2 4.19642 -4.4476 2.20755 0.0484707 0.00880595 0.0751489 
46 2 1.05078 -0.389917 3.05087 0.0342253 0.0359034 0.0065393 
47 2 3.09722 -0.481345 -4.47042 0.0509739 -0.010523 -0.0657037 
48 2 -0.0441509 4.15155 -1.57826 0.0114058 0.058949 0.00179022 
49 2 3.6338 2.23499 5.43714 0.0142179 0.0171447 0.0517406 
50 2 -3.03909 3.28461 4.42977 -0.013251 -0.0312713 -0.0339818 
ITEM: TIMESTEP
300
ITEM: NUMBER OF ATOMS
50
ITEM: BOX BOUNDS pp pp pp
-5 5
-5 5
-5 5
ITEM: ATOMS id type x y z vx vy vz 
1 1 3.65408 -4.05829 -0.736336 0.00739985 0.0494966 -0.0223879 
2 1 -1.10805 4.77052 -2.77795 -0.00522668 0.00695733 0.00403513 
3 1 1.64927 -2.07203 -0.736151 -0.0469805 -0.0290006 0.0448964 
4 1 2.80781 -1.86216 -3.93077 0.0320285 0.0574591 -0.0160984 
5 1 0.785985 -0.28193 -4.92955 -0.017758 0.0333837 -0.012376 
6 1 1.87689 1.91089 3.48829 0.00796524 0.0473183 -0.00240095 
7 1 2.76079 -4.65947 -2.79451 0.0349492 -0.04717 -0.0261962 
8 1 0.365968 2.97123 -3.40548 0.00393191 -0.00483731 -0.0434075 
9 1 1.5419 -1.69382 3.97647 -0.0387332 0.00281752 0.0382142 
10 1 0.581034 0.89013 -0.771261 -0.012597 -0.0709456 -0.0528752 
11 1 0.564153 -3.46402 1.9943 0.00644892 0.0123333 -0.123746 
12 1 -4.64144 3.60223 2.45646 0.0489285 -0.0546562 0.000845177 
13 1 -0.459572 3.93889 3.95325 -0.0363489 0.0185703 8.30549e-05 
14 1 -0.815476 -0.424027 1.75848 -0.0131187 0.00913018 0.0301304 
15 1 4.73622 2.01006 4.3012 -0.0342849 -0.0423836 0.0494378 
16 1 3.07866 4.67412 2.86294 0.0127664 -0.0122895 -0.00780242 
17 1 4.57952 -3.31035 2.79266 -0.00985804 -0.00838631 0.0504474 
18 1 -1.78916 0.0417076 -4.11617 0.0283802 0.0519157 -0.0216657 
19 1 -3.13626 4.39458 -4.48415 -0.0547373 -0.0326529 -0.00351657 
20 1 -1.19786 -2.45482 -0.766534 -0.0507299 -0.00338126 -0.014815 
21 1 0.284901 -4.96806 -0.37232 -0.00686194 -0.0125238 0.0329664 
22 1 0.172954 -3.91837 -5.07828 0.0342661 -0.0263452 0.0555003 
23 1 2.66053 1.02559 -3.80509 0.0816635 -0.0331621 0.0526349 
24 1 0.151388 -1.92172 -2.89183 0.0240923 0.00782693 0.0543972 
25 1 -1.92423 -2.85189 -3.16688 0.0159075 0.00168001 -0.0323417 
26 2 0.327645 4.30138 -3.7848 0.0240939 -0.00143639 -0.0339293 
27 2 -0.293688 0.137215 -3.39702 -0.00485672 0.0260398 -0.00808205 
28 2 1.71826 1.15041 4.98959 0.0387886 0.0435743 0.0356062 
29 2 -2.46597 -1.06361 -3.47371 -0.0076971 0.028858 -0.0281696 
30 2 -2.84744 4.15886 -2.76825 0.0292809 -0.0116587 -0.0277865 
31 2 4.11941 3.03408 2.51139 0.00977731 -0.0308881 -0.0124271 
32 2 1.79516 -4.61579 -0.270691 -0.0350911 0.000952817 -0.0198562 
33 2 2.34445 -0.0242711 -1.42134 0.0482186 -0.00688128 -0.02238 
34 2 0.0996347 -4.05228 3.41076 -0.0176825 -0.00835682 -0.00312595 
35 2 0.250245 2.9805 3.2426 -0.0727348 0.0350769 -0.00588395 
36 2 -0.907607 -2.53137 -2.11296 -0.0361702 0.034721 0.0159225 
37 2 0.723926 -2.06489 -4.63664 -0.000272238 0.00735034 -0.0331676 
38 2 2.44243 -2.35401 -1.7922 -0.00842649 0.00400602 0.0760855 
39 2 3.85507 5.49941 -1.8378 0.049483 0.0370588 0.0270127 
40 2 2.23252 -2.70177 3.15536 -0.0829846 -0.0612722 -0.00669771 
41 2 -0.564117 -3.47648 -0.00687239 0.0344021 -0.00342879 -0.0144123 
42 2 0.08513 -2.01166 1.32016 -0.00826077 0.0160375 0.0166505 
43 2 -3.81586 -2.0352 3.02658 0.0545801 0.0555207 0.0379919 
44 2 -1.4703 -4.3041 -4.2893 0.000117818 0.0158082 -0.0133647 
45 2 4.6291 -4.88353 2.81762 0.0366695 -0.0602976 0.05506 
46 2 1.22483 -0.134718 3.01203 -0.00631121 0.0164138 -0.00185415 
47 2 3.33386 -0.782825 -4.94313 -0.00506818 -0.0520284 -0.0190841 
48 2 0.0799171 4.45295 -1.70704 -0.0101305 -0.0111959 -0.0311948 
49 2 3.80901 2.3594 -4.23846 0.0168933 -0.000440111 0.00937581 
50 2 -3.39009 3.16129 4.11478 -0.0581117 0.00531161 -0.0262484 
ITEM: TIMESTEP
400
ITEM: NUMBER OF ATOMS
50
ITEM: BOX BOUNDS pp pp pp
-5 5
-5 5
-5 5
ITEM: ATOMS id type x y z vx vy vz 
1 1 3.3434 -3.3463 -0.509919 -0.0520859 0.0566236 -0.00180451 
2 1 -1.21125 4.82433 -2.8442 -0.0190995 0.00425914 -0.018453 
3 1 1.14133 -2.34713 -0.142835 -0.0315535 -0.0147169 0.0148757 
4 1 3.08216 -1.57852 -3.62394 0.0155303 -0.00220261 0.0593146 
5 1 0.652971 0.480976 -4.90584 0.021472 0.0769692 -0.00250974 
6 1 1.70706 2.15298 3.57456 -0.0358371 0.00588219 0.0168501 
7 1 3.03198 -5.17035 -2.95799 0.0382741 -0.0473635 0.00183261 
8 1 0.564892 2.77514 -3.78043 0.0370022 -0.0129062 -0.0401739 
9 1 1.42798 -1.93157 3.65194 0.00347746 -0.0342605 -0.059232 
10 1 0.780731 0.147259 -1.53624 0.0509554 -0.0567316 -0.0942479 
11 1 0.49369 -3.25177 1.2427 -0.0310686 -0.00406835 0.0268894 
12 1 -4.10278 3.28274 2.67429 0.0249123 -0.0156714 0.0268266 
13 1 -0.870777 4.44353 3.97997 -0.0258986 0.0603085 -0.00557018 
14 1 -0.589219 -0.596119 2.22348 0.0458082 -0.0152583 0.071873 
15 1 4.47038 1.79632 4.66699 -0.00740445 -0.00428508 -0.0187895 
16 1 3.32097 4.36645 2.77216 0.0413846 -0.0446953 -0.00729103 
17 1 4.72623 -3.24456 3.40519 0.0359183 0.00952224 0.0701438 
18 1 -1.6368 0.405214 -4.08774 -0.0126693 0.00701604 0.0290023 
19 1 -3.61227 3.95725 -4.50595 -0.042434 -0.0502736 -0.0014045 
20 1 -1.70203 -2.5973 -0.461933 -0.0328115 -0.0287192 0.0305416 
21 1 0.258586 -5.11012 -0.370117 0.010055 -0.0354495 -0.0444181 
22 1 0.387723 -4.04799 5.39157 0.0102591 0.00288873 0.0202296 
23 1 3.46384 0.894913 -3.32489 0.053074 0.0144128 0.0525814 
24 1 0.546322 -1.67875 -2.72773 0.0277355 0.0131186 -0.0255342 
25 1 -2.03509 -2.65246 -3.82109 -0.0204806 0.0524577 -0.0745696 
26 2 0.658167 4.40337 -4.59339 0.0376557 0.000143973 -0.0840943 
27 2 -0.10442 0.441775 -3.55207 0.0318156 0.039703 -0.00906612 
28 2 1.84057 1.60599 5.38885 -0.0175777 0.0465956 0.0350497 
29 2 -2.55545 -0.952031 -3.86216 -0.00222672 0.00933206 -0.0522999 
30 2 -2.48176 4.06971 -3.27316 0.0271861 -0.0178064 -0.0708912 
31 2 3.82681 2.47894 2.59061 -0.0492131 -0.050576 0.0299638 
32 2 1.86676 -4.41173 -0.170182 0.0380691 0.0330531 0.0419194 
33 2 2.37347 0.196294 -1.77659 -0.0341038 0.0379967 -0.0625379 
34 2 -0.251616 -4.42567 3.41234 -0.0625243 -0.0474631 0.00497822 
35 2 -0.129624 3.02528 3.16955 -0.0179109 -0.0166984 0.00515249 
36 2 -1.07727 -2.23589 -2.20646 0.00531486 0.0235635 -0.00402039 
37 2 0.764614 -1.91716 -4.54893 0.00871597 0.0129481 0.0424308 
38 2 2.3259 -2.57369 -1.38305 -0.0293842 -0.015857 0.0315683 
39 2 4.40413 -4.43813 -2.19619 0.0290812 -0.00167608 -0.0485376 
40 2 1.82136 -3.42312 2.92349 0.0022194 -0.0579598 -0.0426347 
41 2 -0.281864 -3.66797 -0.0554321 0.00615241 0.0106628 0.00894281 
42 2 -0.0152722 -1.50595 1.36318 0.000643035 0.036059 -0.0358129 
43 2 -3.46147 -1.64569 3.33432 0.0199557 0.0235705 0.0234667 
44 2 -1.48557 -4.00098 -4.28436 0.0107561 0.0362704 0.0118804 
45 2 4.81777 -4.97893 3.28033 -0.0096205 0.0387053 0.0287456 
46 2 0.901631 0.048049 3.26307 -0.056867 0.019804 0.0528696 
47 2 3.20807 -1.13929 -5.19522 -0.0121275 -0.0234126 -0.0290377 
48 2 -0.187583 4.13283 -1.85744 -0.0251218 -0.042836 -0.00323893 
49 2 4.05112 2.22594 -4.06886 0.0305402 -0.0167997 0.0574624 
50 2 -3.973 3.2019 4.05722 -0.0359431 -0.0141796 0.0407787 
ITEM: TIMESTEP
500
ITEM: NUMBER OF ATOMS
50
ITEM: BOX BOUNDS pp pp pp
-5 5
-5 5
-5 5
ITEM: ATOMS id type x y z vx vy vz 
1 1 2.9828 -3.23369 -0.577137 -0.0265061 -0.0181427 -0.00662112 
2 1 -1.46815 4.82696 -3.08941 -0.0309059 -0.00864486 -0.0305143 
3 1 0.722445 -2.35609 -0.369458 -0.0777734 0.00125422 -0.00916943 
4 1 3.12508 -1.67728 -3.33402 -0.0123939 -0.0107393 -0.00366552 
5 1 1.00404 0.611851 -4.88968 0.0382068 -0.0401342 0.0370077 
6 1 1.27325 2.35265 3.55127 -0.0439381 0.044181 -0.0231759 
7 1 3.61274 4.39041 -2.87703 0.0628878 -0.0555679 0.00274271 
8 1 0.848069 3.05565 -4.0223 -0.00485876 0.081955 0.00658024 
9 1 1.74843 -2.28022 3.38221 0.0746347 -0.0405335 0.00491044 
10 1 0.995578 0.12749 -2.3805 -0.0199474 0.0376329 -0.0749392 
11 1 0.0746101 -3.7774 2.1995 -0.0229625 -0.0745458 0.0824429 
12 1 -3.95453 3.22681 2.91682 0.0253651 -0.00129691 0.0356064 
13 1 -1.1356 4.31812 4.15649 -0.0112181 -0.0483934 0.0214289 
14 1 -0.170527 -0.59248 2.9068 0.0176433 -0.00524772 0.0269693 
15 1 4.35258 1.9278 4.31082 -0.0271463 0.0153757 -0.0188767 
16 1 3.74559 3.97919 2.79336 0.0246135 -0.0188433 0.0153272 
17 1 5.18499 -3.1269 4.0874 0.0496001 0.0188156 0.0580577 
18 1 -1.73517 0.338024 -3.6712 0.0117677 0.00307928 0.0482416 
19 1 -3.92063 3.53715 -4.24163 -0.021617 -0.0382272 0.0589056 
20 1 -1.6786 -2.88351 -0.405635 0.0334493 -0.0200945 -0.014905 
21 1 0.50754 4.68394 -0.900773 0.031305 0.00193147 -0.0430784 
22 1 0.415717 -3.92163 -4.66019 0.000442469 0.0137036 -0.0258862 
23 1 3.63474 1.21535 -2.66291 0.00194679 0.045988 0.0665867 
24 1 0.300017 -2.03426 -3.07438 -0.0861415 -0.0683432 0.0232019 
25 1 -2.14238 -2.09842 -4.50636 0.00384166 0.0195515 -0.0725442 
26 2 1.00526 4.34234 -4.99219 0.018913 0.0102929 -0.00371782 
27 2 -0.0370568 0.79593 -3.46536 -0.0204647 0.0194167 0.0197326 
28 2 1.7609 2.09974 -4.62032 0.0297039 0.0246005 -0.0488896 
29 2 -2.49116 -0.729326 -4.34307 0.0106857 0.0451698 -0.0312009 
30 2 -2.36779 3.76908 -4.13005 0.0154286 -0.0238493 -0.0927318 
31 2 3.28483 2.27968 3.20387 -0.0531049 0.01315 0.0820995 
32 2 2.23642 -4.18411 0.325039 0.0343237 0.0102627 0.0209889 
33 2 2.47552 0.480623 -2.67119 0.0557573 0.00714546 -0.0979771 
34 2 -0.792263 -4.08021 3.03224 -0.0665128 0.0609241 -0.0362611 
35 2 -0.206648 2.71202 3.3871 -0.00428795 -0.0299216 0.0342992 
36 2 -0.823488 -1.97402 -2.06952 0.037131 0.0324252 0.0287138 
37 2 0.990914 -2.04783 -4.31242 0.0471197 -0.0414828 -0.0426434 
38 2 1.81778 -2.14649 -1.49953 -0.0476039 0.0760633 -0.054594 
39 2 4.40099 -4.49295 -2.7452 -0.0118613 0.00216906 -0.0563421 
40 2 1.82494 -3.60057 2.47296 -0.0218665 0.0242751 -0.0197056 
41 2 -0.426003 -3.52661 0.0786712 -0.024927 -0.0105512 0.0118624 
42 2 0.175054 -1.46043 0.925947 0.0307283 0.00154989 -0.019817 
43 2 -3.38543 -1.63189 3.51268 -0.00546222 -0.0283861 0.0159639 
44 2 -1.14412 -3.67735 -4.10194 0.0500204 0.0252121 0.0216577 
45 2 4.57407 -4.51626 3.4286 -0.0245117 0.0316209 0.00862725 
46 2 0.288528 0.238219 3.91337 -0.0461246 0.021463 0.0713966 
47 2 3.12969 -1.49048 4.77933 -0.00195839 -0.0477601 0.0150818 
48 2 -0.318849 3.87622 -1.93864 -0.0052085 -0.000239228 -0.0215255 
49 2 4.52874 2.08206 -3.50066 0.0606296 0.000929119 0.0427284 
50 2 -4.32793 2.76109 4.4297 -0.0468423 -0.0591934 -0.0123796 
