ITEM: TIMESTEP
100
ITEM: NUMBER OF ATOMS
50
ITEM: BOX BOUNDS pp pp pp
-5 5
-5 5
-5 5
ITEM: ATOMS id type x y z vx vy vz 
1 1 4.07839 -1.94942 4.81093 -0.0574529 -0.0597911 -0.00640414 
2 1 -3.46477 0.382162 1.00621 0.0111669 -0.000848496 -0.0391416 
3 1 1.83937 2.33475 4.67993 0.00290029 -0.0220725 0.053249 
4 1 3.21668 3.95995 -4.41616 -0.000546092 0.0012708 -0.0374809 
5 1 -2.8514 -0.837937 3.95681 -0.0570651 0.0763728 -0.000571784 
6 1 3.12941 -4.53465 3.17902 -0.0635281 0.0129086 -0.0380443 
7 1 -1.91202 2.41414 3.31913 0.00500531 0.0180588 -0.0274949 
8 1 0.427472 4.33355 -3.57059 0.0244956 -0.0459279 -0.00506522 
9 1 -0.754718 -1.67631 -1.31372 0.0326244 0.00716214 0.0390005 
10 1 4.31614 0.423106 2.77923 0.0217916 0.0579763 0.0337898 
11 1 -4.60657 3.90544 -1.55461 -0.0415234 0.039822 0.0588705 
12 1 -1.95268 3.42288 -3.33491 0.0514561 0.0518903 -0.0304167 
13 1 1.16198 -2.12727 2.45512 0.0346321 -0.103158 0.0477028 
14 1 2.01021 1.15597 -0.779158 -0.00981326 0.0299308 -0.0507776 
15 1 4.06724 0.245696 -1.58406 0.0378218 0.0872103 0.0722565 
16 1 0.9634 2.22732 1.9687 -0.0482928 0.0838448 0.0276546 
17 1 -2.99439 -1.86429 -1.37823 0.0417916 0.0744188 0.0141821 
18 1 0.28875 4.15578 -1.60828 -0.00618745 -0.0782343 0.00529702 
19 1 1.736 -2.2215 -4.36066 -0.0790388 0.0114956 -0.052715 
20 1 4.11358 0.680665 -4.10282 -0.00167249 -0.0739364 -0.0718352 
21 1 -4.34881 -4.10625 3.58325 0.0108501 -0.00391959 0.0783804 
22 1 3.05477 -3.04813 -2.50365 -0.0261488 -0.0362991 0.0150044 
23 1 -4.55408 3.54517 2.27241 0.00978637 -0.0895019 -0.02277 
24 1 -1.78565 2.38851 -1.32049 -0.0116125 0.0803198 -0.0787912 
25 1 -0.0727394 -5.45195 2.9596 -0.0228378 0.0105175 0.00857361 
26 2 1.81572 -4.25279 -1.96893 0.109662 0.0539074 -0.0325895 
27 2 -3.41131 3.12573 -2.75989 -0.0412476 0.0106739 -0.0122579 
28 2 0.195519 3.0851 2.89111 0.0457223 -0.0639499 0.0107729 
29 2 -0.683906 3.72048 -3.88859 0.0651551 -0.00765143 0.00948108 
30 2 2.4207 1.85351 2.08923 0.00200726 -0.0288419 0.0442911 
31 2 -4.16515 -0.813496 -0.534309 0.0100753 0.0847387 0.0130014 
32 2 3.62582 1.28367 -5.34849 0.0268945 -0.0736498 -0.0311772 
33 2 -5.21488 -0.737642 4.45275 -0.0367781 -0.0387134 0.0341586 
34 2 3.32157 -3.87672 4.54986 0.0194064 -0.035123 -0.0532463 
35 2 -0.119202 -3.47889 2.28931 -0.0538138 -0.0184081 0.0442234 
36 2 3.52854 2.30892 -1.87464 0.00616299 0.103147 -0.00599704 
37 2 2.65979 0.201217 -1.60181 0.0204954 0.0141993 0.0210459 
38 2 4.9961 -4.46508 2.1947 0.0641847 -0.0526191 0.0435004 
39 2 -1.95514 -1.37197 -2.3922 -0.0747394 0.0273989 -0.0674033 
40 2 5.13918 0.456872 1.49804 0.000575388 0.0127589 0.037254 
41 2 3.42035 -1.84602 -3.61598 -0.00181339 0.0631184 0.00358906 
42 2 4.25312 4.73869 -2.85909 0.011295 0.00111019 0.0223951 
43 2 -3.75982 1.88624 -0.837183 -0.0469384 -0.0396518 -0.0104083 
44 2 -3.63399 2.33119 2.74047 0.0322749 -0.076126 -0.0298201 
45 2 2.07559 -1.6259 3.83968 0.0504668 -0.125048 -0.00231952 
46 2 -0.974268 3.99991 -1.60138 0.00387327 0.0143168 0.0408721 
47 2 -2.71071 -0.180381 2.49375 -0.018877 -0.0228166 -0.0315778 
48 2 1.65704 3.64485 -5.20868 -0.0459543 0.0563556 -0.0283559 
49 2 0.286779 1.69042 -0.346802 0.031074 -0.037489 0.027718 
50 2 -3.37745 -2.94732 4.39756 -0.0377657 0.0488529 -0.0396029 
ITEM: TIMESTEP
200
ITEM: NUMBER OF ATOMS
50
ITEM: BOX BOUNDS pp pp pp
-5 5
-5 5
-5 5
ITEM: ATOMS id type x y z vx vy vz 
1 1 3.5434 -2.61307 4.70047 -0.0264317 -0.0651858 -0.0172778 
2 1 -3.59503 0.405379 0.734677 -0.0304137 0.00949996 0.0123153 
3 1 1.82707 1.85601 4.76381 0.00160545 -0.0510748 -0.0373172 
4 1 3.45986 4.41326 -4.54096 0.054447 0.0837285 -0.00256439 
5 1 -3.66771 -0.365834 3.73593 -0.0917063 0.00571797 -0.0492444 
6 1 2.70881 -4.47936 2.89059 0.00676097 -0.0211738 -0.000969046 
7 1 -1.90076 2.4136 2.95686 0.0332826 -0.00974376 -0.0313681 
8 1 1.26258 4.31019 -4.04443 0.0551342 0.0174419 -0.0205754 
9 1 -0.252875 -1.5047 -1.12475 0.0584106 0.0236272 0.00489845 
10 1 4.34944 1.01403 3.23477 -0.0218587 0.0501306 0.0193053 
11 1 -5.2227 3.92348 -1.55166 -0.0822523 -0.0236513 -0.0566651 
12 1 -1.99532 4.09544 -3.73804 -0.025197 0.073759 -0.0513241 
13 1 1.20067 -3.12513 2.94727 -0.0549157 -0.0772012 0.0250559 
14 1 1.75306 1.5999 -1.20557 0.00503518 0.0114773 -0.0457712 
15 1 4.84706 1.18071 -0.745074 0.0620069 0.0764938 0.0776542 
16 1 1.09322 2.4791 1.68706 0.048443 -0.0249574 -0.0378762 
17 1 -3.16002 -0.900424 -1.3367 -0.0267603 0.0914891 -0.0417032 
18 1 0.636995 3.47296 -1.05628 0.0156308 -0.0481219 0.0705839 
19 1 1.15523 -2.01979 -5.01523 -0.0421084 0.0264074 -0.0536738 
20 1 4.0921 -0.348436 -4.63036 -0.0366994 -0.0906285 0.00415711 
21 1 -4.25096 -3.96785 4.24462 -0.00342577 0.0131722 0.0358491 
22 1 3.42084 -3.04048 -2.5895 0.0924756 0.0462508 -0.0347521 
23 1 -4.46115 2.65348 1.99618 0.0110868 -0.077081 -0.0300832 
24 1 -2.32339 2.95167 -1.70599 -0.101349 0.0283556 -0.00905389 
25 1 -0.204717 4.8294 3.1731 -0.0114155 0.0130393 0.0419843 
26 2 2.11201 -4.15208 -2.24203 -0.0502074 -0.0344893 -0.0207006 
27 2 -3.31728 3.42716 -2.91617 0.0593577 0.0406547 -0.0138574 
28 2 -0.180769 2.84783 3.30343 -0.0881506 0.00419533 0.0299835 
29 2 -0.373888 3.37275 -3.877 0.0188986 -0.0347851 0.0153979 
30 2 2.37191 1.65043 2.47919 -0.0232587 0.00254013 0.0277434 
31 2 -3.93883 -0.32373 -0.544185 0.00625106 0.0180431 0.0124892 
32 2 3.55489 1.1227 4.34963 -0.0342097 0.0217048 0.016802 
33 2 4.77801 -1.07882 4.5653 0.0366059 -0.0521177 -0.0349478 
34 2 3.73643 -4.382 4.1761 0.0692823 -0.0713289 -0.00917257 
35 2 -0.235843 -3.82305 2.87185 0.0338631 -0.041599 0.0684409 
36 2 3.44636 3.08371 -1.75401 -0.0282029 0.0438545 0.0409889 
37 2 2.89834 0.227473 -1.36082 0.0300258 0.0255199 0.0370546 
38 2 5.56716 -5.32924 2.84633 0.0597788 -0.113265 0.0760392 
39 2 -2.41636 -1.20827 -2.72638 -0.0266931 0.0108071 0.000268414 
40 2 -5.13145 0.629727 1.8283 -0.0310574 0.0305859 0.022667 
41 2 3.13532 -1.51782 -3.60671 -0.0456423 -0.00402831 -0.0175844 
42 2 4.4462 4.94273 -2.78737 0.0285924 0.0517393 -0.0157162 
43 2 -4.051 1.73581 -0.714639 0.00169807 0.041924 0.0317879 
44 2 -3.12998 2.03151 2.58981 0.0379084 -0.00049588 -0.0104269 
45 2 2.2757 -2.8685 3.88912 -0.0214738 -0.10091 0.0127573 
46 2 -1.24771 3.95442 -1.27198 -0.00463567 -0.0146816 0.0286115 
47 2 -2.70603 -0.485134 2.25423 0.00702659 -0.0302096 -0.020415 
48 2 1.66942 4.36535 4.78499 0.0618369 0.0702693 -0.0271661 
49 2 0.700333 1.52407 -0.135664 0.042891 0.0205076 0.0190636 
50 2 -3.78313 -2.49253 3.95937 -0.0302704 0.0337938 -0.0416927 
ITEM: TIMESTEP
300
ITEM: NUMBER OF ATOMS
50
ITEM: BOX BOUNDS pp pp pp
-5 5
-5 5
-5 5
ITEM: ATOMS id type x y z vx vy vz 
1 1 3.44266 -3.13323 4.41869 -0.0227181 -0.0161589 -0.0389081 
2 1 -3.60213 0.252997 1.33166 0.0275241 -0.0380521 0.0589744 
3 1 1.89577 1.44747 4.09931 -0.0162298 -0.0257062 -0.0582677 
4 1 4.09331 5.10723 -4.38004 0.0519115 0.0245425 0.0406897 
5 1 -4.34764 -0.898988 3.06316 -0.0435914 -0.103023 -0.0641255 
6 1 3.16544 -5.03845 3.27037 0.0621874 -0.0840756 0.0456925 
7 1 -1.58119 2.14963 2.63772 -0.0155862 -0.0548558 -0.046947 
8 1 1.28544 4.51285 -3.75245 -0.0217044 0.0252319 0.0402297 
9 1 0.325264 -1.24234 -1.13588 0.0555148 0.0267065 -0.00608618 
10 1 3.72562 1.45828 3.24614 -0.0740424 0.0401267 -0.00202498 
11 1 4.04167 3.93041 -2.35865 -0.0782228 0.0224127 -0.0771757 
12 1 -2.05325 4.5812 -4.16211 0.0154509 0.0264801 -0.0378042 
13 1 0.914818 -3.36489 2.85667 0.00166961 -0.00479396 -0.0354561 
14 1 2.27492 1.35137 -1.62466 0.0572353 -0.00604747 -0.0323331 
15 1 4.50429 1.41867 -0.250475 -0.0657751 -0.00698798 0.0295008 
16 1 1.59424 1.92408 1.36208 0.0504903 -0.0694295 -0.0422612 
17 1 -3.33288 -0.0870479 -2.03671 -0.0376739 0.0891982 -0.0411631 
18 1 0.295454 3.29041 -0.473734 -0.0690899 0.00123667 0.0347218 
19 1 0.903487 -1.78568 4.71862 -0.00375153 0.00954648 0.000262406 
20 1 3.59874 -0.816959 -4.40375 -0.0319238 0.00736292 0.00216101 
21 1 -4.20316 -3.87575 4.19847 0.0412984 0.00735229 -0.0388461 
22 1 4.09389 -2.77563 -2.87452 0.0468004 0.00524238 -0.0193834 
23 1 -4.23504 2.34003 1.78824 0.0332993 0.0361133 -0.00380083 
24 1 -3.19445 3.19508 -1.53286 -0.043336 0.0397935 0.0140886 
25 1 -0.380967 4.22291 3.86459 0.00387113 -0.0404455 0.0955248 
26 2 1.60715 -4.48046 -2.71267 -0.0463891 -0.0415124 -0.0728032 
27 2 -2.78333 3.88938 -3.19203 0.0251853 0.0421467 -0.0212542 
28 2 -0.761564 3.19546 3.46872 -0.0270036 0.0173178 0.00847073 
29 2 -0.056171 3.34121 -3.74437 0.0543209 0.0307449 -0.000892367 
30 2 2.03305 1.84762 2.81274 -0.0214463 0.0216035 0.0472174 
31 2 -4.18375 -0.110924 -0.23994 -0.0272754 0.0380668 0.0133096 
32 2 3.1714 1.20395 5.05804 -0.0313343 -0.011705 0.0808505 
33 2 4.59492 -1.15285 4.3134 -0.0807212 0.0279205 -0.000421976 
34 2 4.63819 -4.66468 4.16095 0.0841039 0.028711 -0.00788815 
35 2 -0.414923 -4.2336 3.55963 -0.0741144 -0.058133 0.0737429 
36 2 2.85787 3.133 -1.19274 -0.0577969 -0.014659 0.0467105 
37 2 3.2749 0.679971 -0.956119 0.0666043 0.0402173 0.0482634 
38 2 -3.75502 3.4883 3.57141 0.0665207 -0.109728 0.0712424 
39 2 -2.48251 -1.18417 -2.71179 0.013728 -0.00840595 -0.00853563 
40 2 4.81615 1.1373 1.94682 -0.00281796 0.0545001 0.00479279 
41 2 2.73027 -1.94781 -3.9894 -0.0359054 -0.0807396 -0.0435304 
42 2 4.62478 5.66038 -3.1832 -0.0019124 0.0820701 -0.0482626 
43 2 -3.50321 2.75996 -0.273159 0.0239054 0.096579 0.0672954 
44 2 -2.97927 1.83512 2.30338 0.0383341 -0.0551365 -0.0504549 
45 2 1.92375 -3.268 3.93865 -0.0204556 0.0487884 -0.00812936 
46 2 -1.08342 3.63179 -0.876567 0.0308966 -0.0426052 0.0523931 
47 2 -2.81863 -0.595793 2.02837 -0.0263952 -0.00358874 -0.0146111 
48 2 2.38403 4.76103 4.31728 0.0565388 -0.0248822 -0.00506719 
49 2 1.13626 2.1661 0.0109327 0.0382884 0.0763296 0.0083806 
50 2 -3.69967 -2.76791 3.45324 0.0315334 -0.0656703 -0.0580809 
ITEM: TIMESTEP
400
ITEM: NUMBER OF ATOMS
50
ITEM: BOX BOUNDS pp pp pp
-5 5
-5 5
-5 5
ITEM: ATOMS id type x y z vx vy vz 
1 1 3.07916 -2.97399 4.1863 -0.033812 0.028748 -0.00274713 
2 1 -3.63011 0.329084 1.23344 -0.0248504 -0.0192602 -0.0431933 
3 1 1.25159 1.14579 4.47647 -0.0724455 -0.0101082 0.0702865 
4 1 4.54343 -4.93128 -4.54663 0.040674 -0.0051366 -0.0291651 
5 1 -4.61775 -2.12091 2.71836 -0.001926 -0.112578 -0.0216359 
6 1 4.03576 4.00968 3.38826 0.0824091 -0.0812713 0.013926 
7 1 -1.5154 1.84051 2.43435 0.0128689 -0.0279609 -0.0100916 
8 1 1.17582 4.5012 -3.72954 0.0636321 0.0447992 0.0167249 
9 1 0.833254 -1.0009 -1.24334 0.0481984 0.0217746 -0.014592 
10 1 3.64196 1.77629 3.11062 0.0169215 0.0121937 -0.00799983 
11 1 2.9638 4.07256 -2.56602 -0.127944 0.0188081 0.024305 
12 1 -1.95458 4.73248 -4.48498 -0.0137364 0.00148933 -0.013387 
13 1 0.721839 -3.68762 2.6452 -0.0293121 -0.0395689 -0.000656779 
14 1 2.7043 1.69983 -1.84561 0.0419268 0.0502511 -0.00896287 
15 1 4.49548 1.44501 0.478893 0.0512721 0.00705881 0.0829796 
16 1 2.13452 1.34205 0.989167 0.0431032 -0.0339621 -0.0313299 
17 1 -3.63071 0.464088 -2.22022 -0.018502 0.0190631 0.00624678 
18 1 0.202124 3.29022 -0.136991 0.00356916 0.0103205 0.0246577 
19 1 1.13579 -1.98615 4.94306 0.0404317 -0.0458828 0.0424352 
20 1 3.26023 -0.458101 -4.5633 -0.0330848 0.0476771 -0.0271589 
21 1 -3.4019 -3.99309 3.89823 0.0904747 -0.0272859 -0.0295059 
22 1 4.29246 -2.42921 -2.95428 -0.0117774 0.0757742 0.000389026 
23 1 -3.73543 2.96001 1.85511 0.0657818 0.0601148 0.0107104 
24 1 -3.16908 3.77156 -1.46927 0.0414746 0.0663494 0.0210206 
25 1 0.036228 4.0799 4.72758 0.0411575 -0.0419932 0.00167596 
26 2 1.54036 -4.33134 -2.8973 0.0218388 0.0381988 0.0217096 
27 2 -2.80092 4.2494 -3.13182 -0.0139609 0.0383633 0.0191969 
28 2 -0.989561 2.74364 3.28384 0.02118 -0.0360691 -0.00573365 
29 2 0.191589 3.47694 -4.10789 -0.0428728 -0.055289 -0.0633598 
30 2 2.06832 2.06355 2.73408 0.0240079 -0.00330355 -0.0148668 
31 2 -4.25881 0.471795 -0.249786 0.0139401 0.0722467 -0.0109604 
32 2 2.68401 0.924821 -4.35066 -0.0729508 -0.0395667 0.044149 
33 2 3.86195 -1.03782 4.10182 -0.0562128 -0.00927307 -0.0456067 
34 2 4.79749 -4.41816 4.12626 -0.00788862 0.0207887 -0.0230918 
35 2 -1.03031 -4.63049 4.39604 -0.0555414 -0.033407 0.104047 
36 2 2.87455 3.14015 -1.42044 0.0454932 0.0154706 -0.0890768 
37 2 3.39375 0.674053 -0.846358 -0.0513346 -0.0186966 -0.0146993 
38 2 -3.29895 2.54287 4.24154 0.0179653 -0.08008 0.053286 
39 2 -2.51081 -0.985668 -2.67606 -0.0238323 0.0511966 0.0137192 
40 2 4.49112 1.73542 1.95367 -0.0395124 0.0746779 -0.0107386 
41 2 2.61703 -2.51804 -4.32835 0.00722608 -0.0146846 -0.0234329 
42 2 4.69164 -3.79364 -3.40723 0.0228955 -0.0041974 -0.0197923 
43 2 -3.74999 3.59003 0.507256 -0.0630287 0.0800633 0.0717004 
44 2 -2.62111 1.20293 1.48934 0.0500345 -0.0176575 -0.08554 
45 2 1.56172 -2.44716 3.49373 -0.0613189 0.0764047 -0.0847956 
46 2 -1.46455 3.36611 -0.599251 -0.0714471 -0.0174057 0.00488642 
47 2 -2.94683 -1.16722 2.28239 -0.028345 -0.045796 0.0288061 
48 2 2.77257 4.29795 4.80919 0.0458044 -0.0506323 0.0665182 
49 2 1.2036 2.47405 0.368975 -0.00133104 -0.0220311 0.0683474 
50 2 -3.4351 -3.01521 2.64362 0.00268658 -0.0387349 -0.0796031 
ITEM: TIMESTEP
500
ITEM: NUMBER OF ATOMS
50
ITEM: BOX BOUNDS pp pp pp
-5 5
-5 5
-5 5
ITEM: ATOMS id type x y z vx vy vz 
1 1 3.19157 -2.66753 3.94072 0.0521044 0.0363146 -0.0482601 
2 1 -3.39194 -0.265727 0.918095 0.0739987 -0.0727163 -0.0181191 
3 1 0.638534 1.37007 5.21521 -0.0595633 0.0535618 0.0844552 
4 1 4.74606 -4.81178 -4.45879 -0.0026543 0.0233899 0.0274723 
5 1 -4.54723 -2.94508 2.50307 0.0176974 -0.0752422 -0.0222284 
6 1 4.72844 3.65744 3.53166 0.0610422 -0.000393148 -0.00381664 
7 1 -1.37757 1.39323 2.29253 0.0331846 -0.0448666 -0.00238955 
8 1 1.43679 5.10521 -4.17743 0.0017465 0.0595753 -0.103561 
9 1 1.41416 -0.717046 -1.4057 0.0755508 0.0449215 -0.0159857 
10 1 3.53981 1.46315 3.24535 0.00525043 -0.0575317 0.015633 
11 1 2.24394 4.64088 -1.95073 -0.00977688 0.0520723 0.111658 
12 1 -2.36875 4.2768 -4.01611 -0.0360052 -0.0778818 0.0626697 
13 1 0.435856 -3.78503 2.71615 -0.0254138 0.0308478 0.00705404 
14 1 3.16637 1.73639 -1.91592 0.0458698 -0.0229209 -0.0106069 
15 1 4.99021 1.69708 0.60192 0.0433772 0.0675133 -0.0144052 
16 1 2.34893 1.24121 0.793847 -0.00151715 0.00844591 -0.00815488 
17 1 -3.70187 0.521233 -1.8714 -0.0163974 0.0291766 0.070651 
18 1 -0.0690411 3.27565 0.0721632 -0.0462174 -0.0314251 0.0262505 
19 1 1.20957 -2.42077 5.43009 -0.0327695 -0.027578 0.0553897 
20 1 3.10756 -0.16703 -5.03169 -0.0184498 0.0123754 -0.0554122 
21 1 -2.51851 -4.17673 3.3926 0.0898514 -0.0165235 -0.0555878 
22 1 4.09514 -2.12867 -3.16283 -0.0242073 -0.0216765 -0.0432156 
23 1 -3.0521 3.46378 1.86955 0.0524248 0.057664 -0.0275727 
24 1 -2.61967 4.38284 -1.21054 0.0433276 0.059666 0.014056 
25 1 0.0529103 3.54687 3.89808 -0.0224261 -0.0647503 -0.0819975 
26 2 1.77436 -4.19663 -2.54718 0.0108742 0.00420278 0.0262605 
27 2 -2.97883 4.63533 -2.83093 -0.0271385 0.0341633 0.0628771 
28 2 -0.489024 2.59374 3.27324 0.0423457 -0.0258803 -0.0270388 
29 2 0.0841919 2.83877 -4.29164 0.0196282 -0.056327 -0.0159637 
30 2 2.32269 1.74817 2.8758 -0.00685822 -0.0528415 0.0352083 
31 2 -4.22911 1.13168 -0.500793 -0.0119509 0.0428841 -0.0344356 
32 2 1.71996 0.568675 -3.98694 -0.0952473 -0.0475041 0.0226778 
33 2 3.41229 -1.16619 3.67738 -0.0325372 -0.00311075 -0.0344927 
34 2 4.81683 -4.29253 3.64555 -0.00404559 0.00406 -0.0372252 
35 2 -1.29923 -4.72287 4.97131 -0.0103163 0.0064378 0.00432157 
36 2 3.36463 3.31767 -2.22695 0.0399488 0.0178203 -0.059981 
37 2 2.60895 0.538957 -0.802309 -0.0979325 -0.0122576 0.0151628 
38 2 -3.35759 1.92164 4.56456 -0.0225637 -0.0405788 0.0132754 
39 2 -2.93409 -0.288681 -2.49368 -0.0358338 0.0557941 0.00780242 
40 2 4.41154 2.5526 1.98804 0.0173317 0.0625309 0.0279291 
41 2 2.73966 -2.35413 -4.43458 0.0222806 0.0314782 0.00566732 
42 2 4.88704 -3.69523 -3.49536 0.0100628 0.0401106 0.000709102 
43 2 -4.42348 4.35685 1.13089 -0.0518206 0.0500411 0.0558466 
44 2 -2.07396 1.27559 0.959821 0.0411464 0.00303626 -0.0179736 
45 2 0.850597 -2.17077 2.86084 -0.0759061 -0.0273418 -0.0352984 
46 2 -1.8722 3.32032 -0.580617 0.000576603 0.0113179 0.0128515 
47 2 -3.51627 -1.02655 2.4105 -0.0841221 0.0337253 -0.0106252 
48 2 3.29344 3.87754 5.52389 0.0555458 -0.0173419 0.0556047 
49 2 1.08633 2.19111 0.734379 -0.0356895 -0.0143579 -0.00779022 
50 2 -3.40238 -4.15351 2.09636 0.0321938 -0.122079 -0.0293461 
