ITEM: TIMESTEP
100
ITEM: NUMBER OF ATOMS
50
ITEM: BOX BOUNDS pp pp pp
-5 5
-5 5
-5 5
ITEM: ATOMS id type x y z vx vy vz 
1 1 2.66897 4.36903 2.36591 0.0376239 -0.033807 -0.0317351 
2 1 1.58361 -0.460711 -0.64344 0.0581452 -0.00315675 -0.00152236 
3 1 -0.392953 2.72307 -4.06198 -0.0665162 0.0613074 0.0461194 
4 1 2.84025 -2.42674 -2.18118 -0.0562542 -0.0225654 0.0411736 
5 1 2.48414 2.89629 -0.194788 -0.0052776 -0.0187368 -0.0221497 
6 1 3.08576 4.02831 -4.23298 0.0310177 -0.0106328 -0.0129114 
7 1 2.60579 4.36884 -2.08979 -0.0117573 0.0619547 0.017473 
8 1 1.34148 -4.10502 -3.92772 -0.0975306 -0.00538 -0.0294316 
9 1 4.5507 -0.222247 0.0407533 0.029843 -0.0264214 0.0354487 
10 1 -0.816163 2.43095 2.70966 -0.0341595 0.0151832 0.0287906 
11 1 -3.1331 -4.0722 3.51908 -0.0817846 0.0132895 0.053835 
12 1 0.436421 1.69785 -0.531869 -0.0502562 -0.0171231 0.0105806 
13 1 -1.63057 -4.30124 -1.80847 0.00673279 -0.0114498 -0.0302574 
14 1 -0.983709 -0.339061 3.85743 0.0176371 0.000211416 -0.0371322 
15 1 1.87898 1.15382 2.63129 -0.0109618 0.000881536 0.0325743 
16 1 4.72157 1.97891 -2.52588 -0.0097206 -0.0305658 0.0389659 
17 1 -4.68645 -1.66072 -3.83082 -0.0356767 -0.122881 0.0283394 
18 1 2.64576 -0.0991831 -3.47284 0.0162655 -0.0434171 0.0138143 
19 1 -4.37747 4.41004 -2.95129 -0.00665131 0.00292515 0.0591734 
20 1 -0.749206 3.65205 -1.22652 0.0198404 0.00479478 -0.0275179 
21 1 -2.30669 -2.01473 0.244236 -0.0196416 -0.0074675 -0.0446871 
22 1 -4.25283 2.45622 -0.200775 0.0266398 -0.00758217 -0.0159081 
23 1 -0.18399 -1.84177 -2.8677 0.0103993 -0.00243463 0.00181384 
24 1 -1.96512 -1.81657 -4.12121 0.05371 0.0277611 0.00777699 
25 1 0.0419563 -2.46754 -0.397682 0.0929769 0.0413711 0.00831029 
26 2 -2.28285 -2.37073 4.20471 0.00356463 0.00502855 0.0399349 
27 2 -3.84142 2.24626 -2.63406 -0.0231064 -0.0773861 0.0718035 
28 2 0.56165 -1.57142 0.568202 -0.0184329 0.0375238 0.0153953 
29 2 -2.63485 -0.666736 0.38507 -0.047493 0.0129706 -0.0384231 
30 2 -0.401499 1.60068 5.14833 0.000472055 -0.0425555 0.00248418 
31 2 1.48363 -2.31099 -1.48259 0.0023604 0.0565055 0.0306798 
32 2 -0.288937 -1.36429 -5.12677 0.0301857 0.00313951 -0.0481506 
33 2 -1.28692 -2.64593 -1.60149 -0.014492 0.0283965 -0.0222119 
34 2 -3.95041 -2.76119 -3.23579 -0.0201285 0.00078123 0.00676004 
35 2 1.63527 4.09996 -3.93542 0.0200029 -0.0453347 0.0685595 
36 2 1.07053 0.938772 0.625134 0.0224327 0.0624578 -0.0398114 
37 2 -5.03443 1.15597 0.254605 -0.0431617 0.0434281 -0.0415158 
38 2 -1.2116 -5.41428 -3.36693 0.173829 -0.0703581 0.00734221 
39 2 2.81026 1.41046 -2.03002 -0.0560158 0.00593259 -0.0393967 
40 2 3.77406 3.13394 -0.867205 0.0985217 -0.0233064 -0.0436896 
41 2 0.575117 3.07447 2.13778 0.00271816 -0.0655227 -0.041362 
42 2 -0.722768 1.30684 -1.44744 -0.0692248 -0.0196435 -0.0364433 
43 2 -3.01201 4.60721 4.76291 -0.0319 0.0429899 -0.00915085 
44 2 0.330016 4.70877 -1.57247 -0.014586 0.131638 -0.0118028 
45 2 3.70161 5.01835 -2.90614 0.0547972 0.0824607 0.00690544 
46 2 -0.270362 -3.07643 -3.80496 -0.0240194 -0.0384989 -0.0348229 
47 2 3.42121 4.40756 3.76728 0.0207602 0.00691672 0.0104072 
48 2 2.71413 -2.53939 -4.05638 0.0228922 -0.0232904 -0.0579786 
49 2 4.4834 0.0378686 -3.44552 0.0174117 -0.0283532 0.0239511 
50 2 -2.53442 3.12465 -0.700777 -0.0220312 0.0480208 0.00959971 
ITEM: TIMESTEP
200
ITEM: NUMBER OF ATOMS
50
ITEM: BOX BOUNDS pp pp pp
-5 5
-5 5
-5 5
ITEM: ATOMS id type x y z vx vy vz 
1 1 3.05106 4.04376 2.39093 0.0406874 -0.0287779 0.0296295 
2 1 1.96393 -0.315373 -0.374352 0.0186265 0.0494698 0.0433093 
3 1 -1.03297 3.02347 -3.83312 -0.0618661 -0.044916 -0.0259412 
4 1 2.48357 -2.93935 -2.1676 -0.0147841 -0.0475806 -0.034215 
5 1 2.75794 2.27693 -0.49511 0.0514011 -0.0935535 -0.0423832 
6 1 3.37966 4.09878 -4.67706 0.015041 0.0233542 -0.0450246 
7 1 2.39414 4.93062 -2.08168 -0.0243517 0.0201688 -0.0296847 
8 1 0.291094 -4.38604 -4.19413 -0.0710143 -0.0843761 -0.0318564 
9 1 5.12799 -0.247605 0.343936 0.0908343 0.0263855 0.0205657 
10 1 -0.862673 2.69919 2.93047 0.0243817 0.0283876 0.0162642 
11 1 -3.76333 -3.71538 4.36422 -0.0499282 0.0914392 0.0915435 
12 1 -0.340577 1.2273 -0.411354 -0.0768249 -0.0712084 0.0192095 
13 1 -1.25555 -4.06052 -2.48088 0.0552027 0.0677978 -0.0725605 
14 1 -0.760384 -0.418652 3.62832 0.0143627 0.010021 -0.027616 
15 1 1.53615 1.31389 2.63085 -0.0560048 0.0308978 -0.0316408 
16 1 4.24631 1.37731 -2.00366 -0.0541847 -0.0659886 0.0589962 
17 1 -5.46641 -2.53929 -3.68836 -0.0909074 -0.0793345 0.0135071 
18 1 3.01366 -0.286204 -3.32502 0.0267561 0.000750033 0.0156199 
19 1 -4.53216 4.53519 -2.35187 -0.0362959 0.0180627 0.0692169 
20 1 -0.690626 3.68357 -1.60113 0.00764966 0.00457527 -0.0261637 
21 1 -2.39616 -1.95153 -0.448738 0.00202745 0.0278657 -0.0953125 
22 1 -3.88378 2.43756 -0.609504 0.0358764 0.00486887 -0.0657981 
23 1 0.141575 -2.08687 -2.70318 0.0366924 -0.0271859 0.0318923 
24 1 -1.5571 -1.9847 -4.51439 0.0338143 -0.0462403 -0.0624565 
25 1 0.719493 -2.46069 -0.370927 0.0207356 -0.0273681 0.0272841 
26 2 -2.61839 -2.31781 4.54786 -0.0614927 0.003019 0.020008 
27 2 -4.10372 1.71321 -2.00343 -0.0173249 -0.0473492 0.05123 
28 2 0.441287 -1.04407 0.80596 -0.00265451 0.0536389 0.0135708 
29 2 -3.31415 -0.648028 0.0845244 -0.0910828 -0.0173917 -0.0225957 
30 2 -0.510625 1.31543 -5.13382 -0.0284786 0.00358731 -0.0578911 
31 2 1.60029 -1.45298 -1.47568 0.032167 0.0851416 -0.0374519 
32 2 0.0263628 -1.04656 4.56237 0.0401668 0.0116257 0.000216284 
33 2 -1.35243 -2.35506 -1.60823 0.00440149 0.0299468 0.00832318 
34 2 -3.76443 -3.00185 -3.00049 0.0342875 -0.0354053 0.0261145 
35 2 2.19609 3.8584 -3.22695 0.124654 0.00821761 0.0620693 
36 2 1.73613 1.48714 0.0566623 0.0873859 0.0346139 -0.0798752 
37 2 4.51527 1.29011 -0.0293659 -0.0529809 -0.0257442 -0.0139448 
38 2 0.110741 3.93915 -2.97805 0.0635763 -0.0192354 0.0731409 
39 2 2.22388 1.18367 -2.39731 -0.0308724 -0.0541209 -0.0258099 
40 2 4.57009 3.31655 -1.3926 0.0472379 0.0562509 -0.0602033 
41 2 0.562505 2.37283 2.05115 -0.0158241 -0.0716196 0.0389867 
42 2 -1.04152 1.34037 -1.76757 -0.00625925 0.0306205 -0.0209993 
43 2 -3.42419 4.95127 4.6219 -0.0344393 -0.0123431 0.00341704 
44 2 0.267949 5.97685 -1.2802 0.00594347 0.130061 0.0431753 
45 2 4.23119 -4.48226 -2.77298 0.0335388 0.0298252 0.0239888 
46 2 -0.515294 -3.25413 -3.81342 -0.0518516 0.0248215 0.033786 
47 2 3.46043 4.34051 3.83834 -0.0105959 -0.0206502 0.00134492 
48 2 2.89305 -2.6134 -4.18961 0.0202238 0.00779059 0.0334477 
49 2 4.38817 -0.490115 -3.19356 -0.0286399 -0.0711336 0.0313747 
50 2 -2.64798 3.85339 -0.520648 0.000986682 0.0783184 0.0081923 
ITEM: TIMESTEP
300
ITEM: NUMBER OF ATOMS
50
ITEM: BOX BOUNDS pp pp pp
-5 5
-5 5
-5 5
ITEM: ATOMS id type x y z vx vy vz 
1 1 3.45973 3.73482 2.45959 0.0432882 -0.034564 -0.0230883 
2 1 1.91375 0.119976 -0.109562 -0.0189616 0.00720763 -0.000643547 
3 1 -1.44533 2.12719 -4.13797 -0.0278869 -0.129069 -0.0296017 
4 1 2.42379 -2.80266 -2.4918 -0.0199266 0.0533084 0.0297986 
5 1 3.43255 2.23113 -0.881594 0.0400004 0.0786988 -0.018868 
6 1 3.53974 4.33268 -4.57001 0.0298407 0.0181783 0.0453877 
7 1 2.12759 4.51024 -2.31339 -0.0308897 -0.0824857 -0.0163218 
8 1 -0.15825 -5.312 -4.52879 -0.0309322 -0.0816762 -0.0135267 
9 1 -4.39877 0.440278 0.520225 0.0123021 0.0817469 -2.74489e-05 
10 1 -0.636549 2.89103 3.21521 -0.00613235 0.0231397 0.0554036 
11 1 -4.02399 -3.04498 5.43273 0.00446406 0.0231925 0.119621 
12 1 -0.934157 0.447631 -0.348403 -0.0374466 -0.0755536 -0.0097165 
13 1 -1.32631 -3.44744 -2.30095 -0.0633387 0.0417646 0.0798322 
14 1 -0.528181 -0.0656533 3.48802 0.0343933 0.0561865 0.0102256 
15 1 1.42215 1.17567 2.27791 0.013132 -0.040866 -0.0484199 
16 1 4.44467 0.420978 -1.86138 0.0818458 -0.158041 -0.0332383 
17 1 4.26588 -3.22637 -3.43767 0.0340716 -0.00948698 -0.00187891 
18 1 2.70678 -0.450051 -3.2302 -0.049588 -0.0806328 -0.00487259 
19 1 -4.84445 5.13099 -1.8241 -0.0160051 0.0988357 0.0300378 
20 1 -0.726482 3.54636 -1.4494 -0.0229036 -0.0366619 0.0422735 
21 1 -2.69184 -1.50282 -1.39977 -0.0697241 0.0496271 -0.0937671 
22 1 -3.54812 2.72075 -1.29848 0.0277053 0.0461187 -0.0773506 
23 1 0.406597 -1.91123 -2.3055 0.0179618 0.0664091 0.0413891 
24 1 -1.20986 -2.39404 -5.13388 0.0287843 -0.0239727 -0.0649753 
25 1 0.697746 -2.38784 0.254274 -0.0130163 0.0513837 0.0913625 
26 2 -3.11803 -2.17407 4.58075 -0.013 0.0359051 -0.0091371 
27 2 -4.25289 1.0508 -1.65491 -0.00222726 -0.0632223 0.0351498 
28 2 0.529437 -0.476653 0.732089 0.0139302 0.0584885 -0.0226642 
29 2 -3.68575 -1.24491 -0.277494 0.000576908 -0.0728148 -0.0387988 
30 2 -1.01862 1.70836 4.11836 -0.0729144 0.0564509 -0.0524847 
31 2 1.89741 -1.19985 -1.80433 0.0163759 -0.0297173 -0.0173108 
32 2 0.21928 -1.20051 4.56591 -0.0148706 -0.0186869 -0.0185993 
33 2 -1.14472 -1.92852 -1.68191 0.0226279 0.0611438 -0.0179677 
34 2 -3.39396 -3.38821 -2.85113 0.0445137 -0.0403916 0.00522215 
35 2 3.56407 3.9454 -3.13584 0.0971537 0.00276219 -0.0473057 
36 2 1.88581 1.50929 -0.251759 -0.029054 0.0307206 0.00458366 
37 2 3.98438 0.790932 -0.127552 -0.0300096 -0.0725016 0.00224475 
38 2 0.265049 4.13844 -2.62026 0.0107728 0.0590669 -0.00531031 
39 2 2.45288 0.735689 -2.65224 0.0598821 0.0242994 -0.0211146 
40 2 4.91148 3.46902 -1.54994 0.0469143 -0.0475969 0.0505941 
41 2 -0.0572282 2.00299 2.33871 -0.0502605 -0.03737 -0.0215549 
42 2 -1.08271 1.88969 -1.7704 -0.0119881 0.0691151 0.0198566 
43 2 -3.79808 4.91939 4.71532 -0.0443691 0.0158074 0.0185606 
44 2 0.765035 -3.03096 -1.28436 0.0882024 0.0459251 -0.0422364 
45 2 4.12896 -3.97646 -2.46506 -0.0493377 0.038091 0.0805749 
46 2 -0.63404 -3.04098 -3.90965 0.0254076 -0.00220383 -0.0411356 
47 2 3.27711 4.14738 3.8628 -0.0273642 -0.0146894 0.0221343 
48 2 2.71271 -2.60048 -3.70266 -0.0564802 -0.00547096 0.00334576 
49 2 4.29403 -1.23057 -2.75473 0.000395965 -0.0602985 0.0494917 
50 2 -2.57474 4.38815 -0.703386 0.0140841 0.0244009 -0.045173 
ITEM: TIMESTEP
400
ITEM: NUMBER OF ATOMS
50
ITEM: BOX BOUNDS pp pp pp
-5 5
-5 5
-5 5
ITEM: ATOMS id type x y z vx vy vz 
1 1 3.84065 3.50084 2.49491 0.0251978 -0.0116672 0.0349348 
2 1 2.03303 0.198445 -0.585339 0.0516737 0.0253783 -0.0898296 
3 1 -1.75092 0.778054 -4.4366 -0.04407 -0.126212 -0.0278695 
4 1 2.57859 -2.75454 -1.62656 0.0680471 -0.0323099 0.099774 
5 1 3.88047 2.70346 -1.1829 0.0489886 0.0167587 -0.0466857 
6 1 3.99298 4.54928 -4.81107 0.0643087 0.0198153 -0.0655222 
7 1 1.78973 3.75975 -2.56446 -0.0338309 -0.0584641 -0.0315015 
8 1 -0.376341 4.22325 -4.13428 -0.0159539 -0.00525959 0.0900748 
9 1 -4.51396 1.02827 0.0750897 -0.0332011 0.0398168 -0.0849044 
10 1 -0.750208 2.9854 3.34492 -0.0218325 -0.0167927 -0.029538 
11 1 -3.12382 -2.90115 -3.90958 0.128568 0.00485454 -0.0137233 
12 1 -1.09317 -0.182098 -0.470798 -0.0122591 -0.0444613 -0.0105407 
13 1 -1.952 -3.21598 -1.72907 -0.049997 0.00317273 0.0498355 
14 1 -0.273787 0.529741 3.66549 0.0178666 0.047109 0.00402287 
15 1 1.24853 0.958405 1.4545 -0.0467922 0.00402909 -0.11503 
16 1 4.98693 -0.903734 -1.84309 -0.0106137 -0.0541129 0.0756628 
17 1 3.97527 -2.92242 -3.42905 -0.0832668 0.0180471 -0.00688009 
18 1 2.39688 -1.15321 -3.41272 -0.00755039 -0.0368071 -0.0438997 
19 1 -4.76406 -4.23815 -1.44703 0.0176684 0.0478576 0.039555 
20 1 -0.908649 3.52712 -1.05358 -0.0120083 0.043241 0.0406461 
21 1 -3.30454 -1.0583 -2.25108 0.00678753 0.0439235 -0.0543483 
22 1 -3.31537 3.18569 -2.00789 0.0240895 0.0476325 -0.050735 
23 1 0.305408 -1.25263 -1.99097 -0.0227852 0.0388991 0.0212485 
24 1 -0.913393 -2.45558 4.41738 0.0327608 0.00603042 -0.0158553 
25 1 0.577635 -1.75864 0.900209 -0.0064964 0.0668967 0.047774 
26 2 -3.08816 -1.90418 4.7112 0.0200815 0.015672 0.0460261 
27 2 -3.88815 0.51053 -1.27455 0.0555325 -0.0666128 0.0245449 
28 2 0.596169 -0.239267 0.492761 0.00482489 -0.0208349 -0.0327058 
29 2 -3.60507 -1.80865 -0.689941 0.0145165 -0.0529434 -0.0683164 
30 2 -1.82748 2.04534 4.3924 -0.0552152 0.0162668 0.0711839 
31 2 1.94773 -0.900504 -1.84725 -0.0124544 0.0908047 0.00568396 
32 2 -0.222062 -1.06421 4.05622 -0.0644795 0.0491879 -0.0741131 
33 2 -1.21859 -1.12184 -1.7323 -0.0285113 0.0891979 0.00584542 
34 2 -3.05989 -3.60761 -2.63666 0.0159689 4.08308e-05 0.0546274 
35 2 4.11284 3.91462 -3.18947 0.0255501 -0.00163455 0.035088 
36 2 1.66382 2.1838 -0.0882652 -0.00215624 0.0710554 0.0194122 
37 2 3.8102 0.0969944 0.0595293 -0.0171203 -0.0582978 0.0298668 
38 2 0.455797 4.58286 -2.83579 0.0254261 0.00323036 -0.0353109 
39 2 3.20416 1.14991 -2.9373 0.0772278 0.0369357 -0.0277453 
40 2 5.31646 3.04488 -0.692772 0.0284122 -0.0391527 0.100208 
41 2 -0.0818144 1.48902 2.06544 0.0169455 -0.0515845 0.0159671 
42 2 -1.45009 2.1821 -1.64804 -0.057191 -0.0203216 -0.0057531 
43 2 -4.39523 5.25835 5.04638 -0.0806184 0.0490352 0.0446881 
44 2 1.20503 -3.09663 -1.22107 -0.0461441 -0.0344071 0.0630276 
45 2 3.50248 -3.73437 -1.44155 -0.0335292 0.000278451 0.0951115 
46 2 -0.553653 -3.35402 -4.20423 -0.0206816 -0.0427641 -0.0378692 
47 2 3.03322 3.94577 3.97322 -0.0108235 -0.0258758 -0.00890748 
48 2 2.36538 -2.63189 -4.11067 -0.000485021 0.00884309 -0.0334963 
49 2 4.41067 -2.01293 -2.63476 0.0223438 -0.0969277 -0.0318808 
50 2 -2.30411 4.42865 -1.33749 0.0372807 -0.00656629 -0.0718474 
ITEM: TIMESTEP
500
ITEM: NUMBER OF ATOMS
50
ITEM: BOX BOUNDS pp pp pp
-5 5
-5 5
-5 5
ITEM: ATOMS id type x y z vx vy vz 
1 1 3.94112 3.35299 2.8212 0.0106453 -0.0351401 -0.0122474 
2 1 2.8556 0.646477 -1.36465 0.0914953 0.0487367 -0.0664985 
3 1 -2.32593 -0.328313 -4.85322 -0.0588144 -0.089976 -0.0698474 
4 1 2.54602 -2.79052 -0.509751 -0.0503099 -0.0196521 0.115127 
5 1 4.32245 2.99641 -1.94466 0.0364109 0.0283846 -0.0829954 
6 1 4.47562 4.50216 -5.19089 0.025834 -0.0211126 -0.00484932 
7 1 1.75059 3.20962 -2.81609 0.0344578 -0.0646556 -0.0168395 
8 1 -0.877996 4.51522 -3.31205 -0.0713478 0.0578129 0.0729042 
9 1 -4.70002 1.24731 -0.728111 0.0164064 -0.0131747 -0.0645047 
10 1 -1.15083 2.68874 3.00254 -0.0522134 -0.0386095 -0.0294109 
11 1 -2.08165 -3.17923 -4.15207 0.0462074 -0.0471662 0.0127469 
12 1 -1.4907 -0.168809 -0.2938 -0.0641012 0.0321565 0.0223845 
13 1 -2.30283 -3.19605 -1.00502 -0.029975 0.00396385 0.0632909 
14 1 -0.0414575 0.646569 3.61229 0.0257827 -0.0362154 0.0304397 
15 1 0.694503 1.37802 0.300169 -0.0519009 0.0650614 -0.103154 
16 1 4.61419 -1.41739 -0.723286 -0.00462067 -0.04771 0.106823 
17 1 3.42162 -3.52595 -3.88529 0.01092 -0.100589 -0.0393097 
18 1 2.23708 -1.06546 -3.75739 -0.020131 0.05078 -0.0149503 
19 1 -4.62323 -3.58675 -1.32583 0.00990555 0.0780159 -0.0334385 
20 1 -1.06905 3.78999 -0.785082 -0.0149491 0.00388504 0.0168935 
21 1 -2.78088 -0.622941 -2.39941 0.0413609 0.0242357 0.0222358 
22 1 -3.02258 3.58309 -2.3416 0.02696 0.0220832 -0.0284961 
23 1 0.289052 -1.11983 -1.83171 0.00955155 0.00473504 0.0269469 
24 1 -0.523227 -2.27856 4.35338 0.0443963 0.0299804 -0.0117777 
25 1 0.597913 -1.34119 1.43371 0.00602915 0.0305963 0.0499297 
26 2 -2.59895 -1.60748 5.4359 0.0774849 0.0496051 0.0905998 
27 2 -3.64122 -0.100413 -1.20476 -0.0203317 -0.0297491 0.0132791 
28 2 0.510014 -0.439046 -0.0496167 -0.0367853 -0.00430092 -0.0504422 
29 2 -3.51774 -2.35121 -1.28087 -0.00207978 -0.0273365 0.0181521 
30 2 -1.94895 2.00115 5.02433 0.0164934 -0.022801 0.0432795 
31 2 1.65529 -0.40829 -2.22173 -0.027959 0.0156007 -0.0817103 
32 2 -0.908881 -0.612747 3.47614 -0.0678805 0.0112644 -0.0270412 
33 2 -1.38472 -0.545434 -2.02306 0.0200649 0.0225148 -0.050703 
34 2 -3.05316 -3.67706 -2.51259 0.0245817 -0.0576151 -0.047069 
35 2 4.2395 3.93498 -2.67154 0.00824883 0.0274668 0.0416617 
36 2 1.7123 2.61405 0.00513412 -0.00186262 0.0110512 -0.00587064 
37 2 3.67048 -0.338639 0.023071 -0.00728009 -0.0388815 -0.0518004 
38 2 0.863038 4.27277 -3.04071 0.0320038 -0.0398484 -0.0140304 
39 2 3.92929 1.49966 -2.88926 0.0634364 0.0324893 0.0526857 
40 2 -4.58495 2.50704 0.104821 -0.0110159 -0.0579076 0.0515239 
41 2 0.0571587 1.30343 2.41217 0.0171457 0.0418272 -0.0143282 
42 2 -1.94699 2.10026 -1.69009 -0.0444 0.0151585 0.00551503 
43 2 -5.1735 -4.01119 -4.55286 -0.082406 0.0843912 0.0271309 
44 2 0.619887 -3.04779 -0.514376 -0.0487857 0.0387302 0.0707386 
45 2 3.92766 -4.19577 -0.449685 0.0723639 -0.0317303 0.097068 
46 2 -1.04773 -3.70022 -4.76235 -0.0454812 -0.0340319 -0.0722525 
47 2 3.19866 3.73963 3.84093 0.0318385 -0.00303776 0.0146238 
48 2 2.3571 -2.41119 -4.40808 -0.0222772 0.0319607 -0.0362732 
49 2 4.65136 -2.41343 -2.61854 -0.0321658 -0.0150484 0.0258441 
50 2 -1.84478 4.43932 -1.99429 0.069049 0.0138021 -0.0619841 
