ITEM: TIMESTEP
100
ITEM: NUMBER OF ATOMS
50
ITEM: BOX BOUNDS pp pp pp
-5 5
-5 5
-5 5
ITEM: ATOMS id type x y z vx vy vz 
1 1 2.14113 1.12725 3.61669 0.0445794 0.0161026 -0.0229769 
2 1 3.79453 1.8155 1.95877 0.0179383 -0.0459703 -0.0117739 
3 1 4.2837 4.20732 3.5825 -0.0554512 0.0216823 -0.00589564 
4 1 3.39743 3.54213 -1.88106 -0.0105135 0.0410918 -0.0243368 
5 1 -2.88394 3.64655 1.11612 0.00416005 0.0463572 0.0161775 
6 1 -0.271132 3.51354 -2.43824 -0.0257799 -0.0514725 -0.0260845 
7 1 -4.96223 2.71123 -0.531679 -0.0262757 0.0382155 -0.0146399 
8 1 1.79768 3.67038 2.54844 0.0480002 0.0115428 -0.0157716 
9 1 1.31956 2.25913 0.259765 -0.0257623 0.0408369 0.00341341 
10 1 -3.9561 0.417829 0.816246 -0.00862831 0.0184457 0.0250429 
11 1 4.68156 4.67408 0.729703 -0.0357704 -0.0209897 0.00634215 
12 1 1.68923 -3.95597 3.46385 0.032844 0.023155 0.0102207 
13 1 3.32462 -2.68097 0.488547 0.00671705 0.00937118 -0.00751314 
14 1 0.671598 -0.341693 1.49195 0.00628052 0.00425573 0.0158017 
15 1 2.27596 4.3522 -4.13221 0.0188287 -0.0218997 0.0032052 
16 1 0.636851 2.52547 -5.32779 -0.0430834 0.00630827 0.00180099 
17 1 -0.834684 -2.13871 3.14872 -0.000721565 0.014735 0.00143882 
18 1 -0.463484 4.43949 0.130337 -0.0514872 -0.024479 0.017927 
19 1 1.24844 2.30132 -2.74732 -0.0028701 0.00714663 -0.0360561 
20 1 -1.00342 1.72919 2.12261 0.0112522 -0.010589 0.00803353 
21 1 3.06451 0.466773 -0.876612 -0.0129244 0.0160255 0.00778241 
22 1 -1.38292 1.98778 -0.369034 -0.0290426 -0.0169641 -0.0306511 
23 1 3.55561 -0.578605 1.54501 -0.00737688 0.0112598 0.0144138 
24 1 -0.607192 -4.22812 1.98859 0.0535002 -0.0777363 0.0307926 
25 1 4.02682 2.33564 -4.3365 0.00938253 -0.0308939 0.0246961 
26 2 4.72433 1.21221 0.348803 -0.0328237 -0.00168179 0.0468158 
27 2 -4.81787 -0.136776 2.26928 -0.0148288 0.0353217 -0.00464533 
28 2 0.705291 4.6832 1.41621 0.0253805 0.0148488 0.0470479 
29 2 0.078365 1.94244 3.32509 0.000169044 -0.025671 -0.000565645 
30 2 -0.428907 3.13786 -0.482037 0.017559 -0.0179752 0.0123705 
31 2 2.45282 -2.35518 2.04439 0.0125859 0.00456368 -0.00944888 
32 2 2.40766 2.25197 1.25318 0.0101343 -0.0475552 -0.0306637 
33 2 3.03605 4.74853 2.77508 0.0360814 0.0176766 0.0204187 
34 2 3.15704 -1.00785 0.143949 0.00661648 -0.00746428 -0.00185866 
35 2 2.17046 1.56554 -1.66586 0.0139013 0.00437562 -0.0204439 
36 2 -3.51388 2.56158 -0.697014 0.00623609 -0.0250163 -0.057852 
37 2 1.4968 3.83906 -2.24324 -0.0123968 -0.00746435 0.0352497 
38 2 0.0208833 -3.57953 3.54314 0.0231248 -0.00194111 -0.0355843 
39 2 -0.287388 -1.5108 1.66668 -0.0290797 -0.0142938 -0.00494337 
40 2 -4.5344 4.21116 1.9616 0.0090628 -0.0287477 0.0354407 
41 2 -2.05503 2.3219 1.5091 -0.0177257 -0.00500251 0.00984675 
42 2 0.161962 1.07841 0.830242 -0.00357591 -0.00480812 0.0302974 
43 2 1.42755 4.01121 4.64943 0.0124729 0.00175006 -0.0431791 
44 2 -1.87598 4.94631 0.843494 -0.0377745 0.0380439 -0.00252369 
45 2 3.78971 3.64206 -3.6222 0.0196287 0.000453975 -0.0127053 
46 2 2.0704 0.267946 2.28015 -0.00125466 0.0177371 0.00671897 
47 2 3.37996 2.39611 3.64244 0.0231172 0.0198788 -0.0445124 
48 2 1.74962 1.55683 -4.34986 0.0350349 0.0140343 0.00329519 
49 2 -0.314008 2.68275 -3.60931 0.00840698 0.00995124 0.0037593 
50 2 3.94997 4.2223 -0.458634 -0.0278482 -0.0165517 0.026276 
ITEM: TIMESTEP
200
ITEM: NUMBER OF ATOMS
50
ITEM: BOX BOUNDS pp pp pp
-5 5
-5 5
-5 5
ITEM: ATOMS id type x y z vx vy vz 
1 1 2.38461 1.40966 3.55785 -0.00462563 0.0416286 0.0174995 
2 1 3.96779 1.65275 1.81635 0.00351546 0.0276101 -0.00109607 
3 1 4.1208 4.04452 3.54638 0.026339 -0.0480816 0.010019 
4 1 2.96888 4.04283 -1.98671 -0.0530756 0.0419066 0.0223067 
5 1 -3.01605 3.99986 1.4624 -0.0330924 0.0169175 0.0541467 
6 1 -0.62526 3.46276 -2.25721 -0.0142713 0.00571871 0.0323867 
7 1 -5.05371 2.69286 -0.562541 0.00569978 -0.0338165 -0.000492918 
8 1 2.17257 3.75804 2.34482 0.014415 0.00496129 -0.0190272 
9 1 1.00696 2.51398 0.190438 -0.016244 0.00408602 -0.0161847 
10 1 -4.11566 0.724383 1.17391 -0.00768659 0.0407321 0.0341764 
11 1 4.21341 4.58017 1.21036 -0.0559391 -0.00863513 0.0639735 
12 1 1.9915 -3.72746 3.27631 0.0279971 0.0242063 -0.0493017 
13 1 3.09956 -2.493 0.548589 -0.0398974 0.0227149 0.0051864 
14 1 0.874948 -0.276475 1.61348 0.0186333 0.005482 0.00693103 
15 1 2.3292 4.09124 -4.26459 -0.0143835 -0.0280015 -0.0451933 
16 1 0.191345 2.68094 4.80816 -0.0317895 0.020792 8.26141e-05 
17 1 -0.628349 -2.08841 3.07639 0.0348007 -0.0186907 -0.00474834 
18 1 -0.843028 4.29521 0.291325 -0.0252258 -0.00874935 0.00465159 
19 1 1.56975 1.92692 -3.11976 0.0377188 -0.055784 -0.0126772 
20 1 -0.671967 1.6074 2.21406 0.0186777 -0.00330927 -0.00430545 
21 1 2.97399 0.618813 -0.574474 0.000813631 0.0191314 0.0521526 
22 1 -1.85121 1.80409 -0.46396 -0.0590173 -0.0101846 0.0130149 
23 1 3.39574 -0.579747 1.88555 -0.0104384 -0.0277213 0.0381353 
24 1 -0.156357 -4.86087 2.55494 0.0199422 -0.0348442 0.0891545 
25 1 3.88097 1.98309 -4.27008 -0.0334433 -0.0273373 -0.00139224 
26 2 4.46081 1.3643 0.423947 0.0111038 0.023608 -0.0555488 
27 2 -5.08857 0.15487 2.20725 -0.0385489 0.016162 0.00830707 
28 2 0.924396 4.53623 1.72995 0.0311669 -0.0627572 -0.00687159 
29 2 0.197668 1.75594 3.47264 0.0240014 -0.00886567 0.033054 
30 2 -0.332031 2.9075 -0.656415 -0.0195478 -0.00977647 -0.0290853 
31 2 2.74795 -2.45576 1.94883 0.0355141 -0.0111438 -0.000771847 
32 2 2.51824 2.22514 0.978678 -0.0191082 0.0335839 -0.0151042 
33 2 3.11287 5.27615 2.79925 0.00287181 0.0624327 -0.0183284 
34 2 3.28634 -1.01734 -0.0922437 0.0103865 0.00994694 -0.0262425 
35 2 2.44076 1.56393 -1.72747 0.0325256 -0.0076215 -0.0070547 
36 2 -3.31699 2.35705 -1.13624 0.0241465 -0.0200071 -0.026778 
37 2 1.46162 3.85805 -2.21339 0.00377854 0.0120871 -0.0328122 
38 2 0.19436 -3.47606 3.16498 0.0171661 0.0224682 -0.0204216 
39 2 -0.635174 -1.56077 1.77987 -0.0250792 0.0261891 0.00617557 
40 2 -4.48063 3.90003 2.12185 -0.0106681 -0.0204008 -0.0062372 
41 2 -2.38449 2.3222 1.38727 -0.0240545 0.000795194 -0.0253051 
42 2 -0.0535093 1.03903 0.931184 -0.021611 -0.00759133 -0.00395595 
43 2 1.56402 4.0791 4.26161 0.014294 0.00522341 -0.024423 
44 2 -1.98913 5.21993 0.912017 0.0138692 0.000365189 0.0148655 
45 2 3.79127 3.62582 -3.6522 -0.0208355 -0.00725746 0.00184235 
46 2 2.25579 0.126417 2.51049 0.0227876 -0.0316999 0.032258 
47 2 3.68242 2.5057 3.26493 0.0237752 0.00874796 -0.0304268 
48 2 2.2836 1.80071 -4.50935 0.0746678 0.0300824 -0.0362761 
49 2 -0.173954 2.62509 -3.7774 0.0160517 -0.00870745 -0.00917206 
50 2 3.84746 3.89117 -0.460546 0.0119237 -0.0265955 -0.0110859 
ITEM: TIMESTEP
300
ITEM: NUMBER OF ATOMS
50
ITEM: BOX BOUNDS pp pp pp
-5 5
-5 5
-5 5
ITEM: ATOMS id type x y z vx vy vz 
1 1 2.08729 1.68441 3.7441 -0.0446709 -0.00319471 -0.00648122 
2 1 3.79902 2.00838 1.71979 -0.0263483 0.0226168 -0.0229332 
3 1 4.58945 3.68363 3.77552 0.0530951 -0.022425 0.0218569 
4 1 2.70966 4.19193 -1.57709 -0.00656099 -0.0124829 0.0374516 
5 1 -3.24105 4.03035 1.91424 -0.0063953 -0.00649845 0.023632 
6 1 -0.381603 3.3504 -2.29876 0.0563413 -0.0234419 -0.0438653 
7 1 5.12103 2.6057 -0.85468 0.0323687 0.0305792 -0.062187 
8 1 2.04166 3.63135 2.34406 -0.0363777 -0.0295889 0.0201821 
9 1 0.95843 2.43204 0.0282999 -0.0104949 -0.0133919 -0.00473742 
10 1 -4.0223 1.11262 1.46592 0.0119699 0.0338295 0.0280376 
11 1 3.87798 4.57724 1.43546 0.00581542 0.00414993 -0.0333972 
12 1 2.24388 -3.3749 2.67362 0.0226566 0.0234329 -0.051277 
13 1 2.72576 -2.28537 0.300606 -0.0299202 0.0258334 -0.0398798 
14 1 0.87649 -0.190553 1.67062 -0.014194 0.0140927 0.00825604 
15 1 2.18654 3.77069 -4.62954 -0.000650291 -0.0329379 -0.00402216 
16 1 0.0325569 2.82945 4.70418 -0.00755689 -0.00283729 0.00819603 
17 1 -0.358981 -2.23972 2.95642 0.0123345 0.0033693 -0.0314406 
18 1 -0.950562 4.18644 0.350475 0.00801295 -0.0199268 0.0104782 
19 1 1.75492 1.54321 -3.05344 -0.00219372 -0.0138959 0.01069 
20 1 -0.650234 1.67321 2.20059 -0.00306858 0.0113561 -0.00234477 
21 1 3.14767 0.868133 -0.154025 0.0309141 0.0163302 0.0140221 
22 1 -2.27035 1.83869 -0.178601 -0.0092311 0.0155481 0.0244901 
23 1 3.61428 -0.991061 2.37307 0.0377176 -0.0226507 0.0636562 
24 1 0.176521 -5.16226 3.35383 0.054259 -0.0167032 0.0570111 
25 1 4.02971 1.93978 -4.07965 0.0495485 0.0189952 0.0388845 
26 2 4.76401 1.353 0.0380132 0.0292058 -0.0260266 0.00889917 
27 2 4.59733 0.343172 2.25137 -0.0110161 0.0286835 -0.00904359 
28 2 0.721784 3.92862 1.46398 -0.0806063 -0.0378307 -0.0327416 
29 2 0.418352 1.7548 3.64241 0.00844038 0.0119418 -0.00843027 
30 2 -0.707815 3.01693 -0.758911 -0.0351672 0.0252323 0.0137459 
31 2 2.98472 -2.31294 2.01905 0.014171 0.0359645 -0.0111043 
32 2 2.22656 2.48105 1.04242 -0.00291133 -0.00414873 0.0105226 
33 2 3.42424 -4.73446 2.54939 0.0225025 -0.0351882 -0.0163528 
34 2 3.19272 -0.882833 -0.143564 -0.0315075 0.0154793 0.0156642 
35 2 2.67695 1.38284 -1.84617 0.0136716 -0.0207326 -0.00779571 
36 2 -3.20998 2.18184 -1.35538 -0.0123529 -0.0118269 -0.0262602 
37 2 1.35968 4.06642 -2.66203 -0.0150362 0.0292458 -0.0344343 
38 2 0.561428 -3.50143 3.13383 0.0554391 -0.0322297 0.00515313 
39 2 -0.678752 -1.07036 1.87102 0.0207027 0.0482743 0.0317937 
40 2 -4.85533 3.84143 2.03062 -0.0359025 -0.00273371 -0.00750915 
41 2 -2.57875 2.29096 1.1821 -0.0256599 -0.00890019 0.00703183 
42 2 -0.00531593 0.996061 0.849443 0.0306932 0.011701 -0.00850057 
43 2 1.51353 4.094 3.96437 -0.0394788 -0.00156561 -0.0420294 
44 2 -1.87553 -5.05766 1.22828 -0.0065684 -0.0435182 0.0544433 
45 2 3.55289 3.57658 -3.69422 -0.0124928 -0.0048145 -0.0125946 
46 2 2.16321 0.0136132 2.80191 -0.0344631 -0.000509853 0.0151897 
47 2 3.59665 2.62965 3.06734 -0.0423994 0.0209134 -0.00132822 
48 2 2.56698 1.93056 -4.94929 -0.0103947 -0.00436115 -0.0156706 
49 2 -0.0449649 2.54259 -3.62831 0.010542 -0.0145195 0.012895 
50 2 4.03317 3.90977 -0.54121 0.0132181 0.0213124 -0.00582217 
ITEM: TIMESTEP
400
ITEM: NUMBER OF ATOMS
50
ITEM: BOX BOUNDS pp pp pp
-5 5
-5 5
-5 5
ITEM: ATOMS id type x y z vx vy vz 
1 1 1.86785 1.28628 3.54976 0.00089905 -0.0454498 0.002841 
2 1 3.71802 2.10745 1.70045 0.0141071 -0.00265242 0.0214015 
3 1 4.70622 3.5074 3.62645 -0.0362425 -0.0122832 -0.0490823 
4 1 2.68835 3.94242 -1.47893 0.000968095 -0.0314339 -0.0167098 
5 1 -3.2574 3.84872 1.90666 -0.00972976 -0.043096 -0.0140662 
6 1 0.162278 3.31558 -2.52013 0.0338964 0.0202591 0.00657515 
7 1 -4.60411 2.88104 -1.3074 0.00800196 0.024959 -0.0145046 
8 1 1.68423 3.37382 2.39835 -0.0299828 -0.0177571 -0.00580999 
9 1 0.803647 2.31778 0.205098 0.00281132 0.0119621 0.016877 
10 1 -4.11462 1.3655 1.6582 -0.0285125 0.0133312 0.00394368 
11 1 4.15549 4.51147 0.846054 0.0361078 -0.0113402 -0.0436905 
12 1 2.46013 -3.52504 2.43363 0.0323626 -0.0290441 -0.00812839 
13 1 2.54774 -1.95725 0.0613986 -0.00615519 0.0331104 0.00144241 
14 1 0.844562 0.00376815 1.73946 0.01407 0.020913 -0.00524875 
15 1 2.2955 3.52636 -4.56912 0.0136812 -0.0166208 -0.00354683 
16 1 -0.0499977 2.54737 4.90597 -0.00475657 -0.0404352 -0.00614535 
17 1 -0.185552 -2.2797 2.60286 0.0280643 -0.0129047 -0.0301445 
18 1 -0.949908 4.15689 0.607247 -0.0427728 0.0318733 0.0187633 
19 1 1.68814 1.50056 -3.09846 0.000587566 -0.0104419 -0.0194734 
20 1 -0.651979 1.85539 2.11723 -0.00877685 0.0306313 -0.012319 
21 1 3.48134 0.747473 -0.368743 0.0327334 -0.0214002 -0.0452971 
22 1 -2.16969 2.11399 -0.329474 0.0123314 0.0367303 -0.0386803 
23 1 3.8634 -0.740649 2.86749 5.85921e-05 0.053793 0.0163376 
24 1 0.408763 5.21089 3.56578 -0.00682891 0.0523774 0.00763722 
25 1 4.24448 2.21153 -3.68687 -0.00363628 0.014093 0.038707 
26 2 4.98896 1.42096 0.195401 0.00990913 0.0378074 0.00607055 
27 2 4.63122 0.641485 2.28767 0.00343847 0.0246697 0.0344147 
28 2 0.0524732 3.54202 1.35241 0.00451072 -0.0612227 0.0337645 
29 2 0.144403 1.97917 3.3655 -0.0505687 0.0132644 -0.0348705 
30 2 -0.879318 3.16858 -0.820656 -0.00536051 5.96206e-05 -0.0284239 
31 2 3.08392 -2.08445 1.71713 0.00733455 0.000686107 -0.0283116 
32 2 2.42092 2.3048 0.90521 0.0181717 -0.00974871 -0.0372658 
33 2 3.21937 -4.78151 2.46256 -0.0372428 0.00847501 -0.0286641 
34 2 2.73655 -0.514729 -0.0417955 -0.0564021 0.060702 -0.00424411 
35 2 2.75956 1.36056 -1.85799 0.00465212 0.0225964 -0.00249616 
36 2 -3.38865 2.13788 -1.587 -0.00470015 0.00208736 -0.0201898 
37 2 1.3057 4.2996 -2.73796 0.00990795 0.00660443 0.013143 
38 2 1.00053 -3.60779 3.07179 0.0251429 0.0298581 -0.0245805 
39 2 -0.363328 -0.77687 2.37376 0.0256944 0.0104682 0.0547969 
40 2 -4.7136 3.60942 1.98574 0.028056 -0.0371076 0.00201687 
41 2 -2.82125 2.12856 1.577 0.00397628 -0.0215101 0.0413817 
42 2 0.284123 1.22505 0.782193 4.15628e-05 -0.0039078 0.00780583 
43 2 1.17245 3.73258 3.99306 -0.033377 -0.0430572 0.053097 
44 2 -2.08676 4.54702 1.85255 -0.00756459 -0.0152816 0.05671 
45 2 3.73441 3.52548 -3.80133 0.0436618 0.0104802 -0.00312113 
46 2 1.848 -0.000127389 2.89305 -0.00867117 -0.0042886 0.0126879 
47 2 3.10483 2.81163 3.21038 -0.0369989 0.000304352 0.0186275 
48 2 2.42126 1.73646 -4.53595 -0.0241922 -0.038149 0.0691101 
49 2 0.144969 2.14856 -3.72684 0.0308683 -0.0559492 0.00109589 
50 2 4.05788 4.10459 -0.607375 -0.0035741 0.0129857 -0.0142336 
ITEM: TIMESTEP
500
ITEM: NUMBER OF ATOMS
50
ITEM: BOX BOUNDS pp pp pp
-5 5
-5 5
-5 5
ITEM: ATOMS id type x y z vx vy vz 
1 1 1.9294 1.22263 4.01208 0.0194172 0.00195679 0.068786 
2 1 3.61862 1.97253 1.728 -0.0402424 -0.0197612 -0.0263959 
3 1 4.08161 3.55706 3.19601 -0.0715443 0.0302697 -0.0223823 
4 1 2.77703 3.6072 -1.77421 0.0230567 -0.0351225 -0.0305124 
5 1 -3.15632 3.32717 1.87925 0.0199196 -0.0366008 0.0242607 
6 1 0.124475 3.44066 -2.38427 -0.0255436 0.00204055 0.010829 
7 1 -4.71512 3.07032 -1.15693 -0.0167471 0.00389098 0.0323833 
8 1 1.43862 3.28944 2.50407 -0.00581067 -0.00156025 0.0267674 
9 1 1.04358 2.48918 0.198546 0.0261141 -0.0042534 -0.00855411 
10 1 -4.17995 1.35138 1.52684 0.0158523 -0.017681 -0.0202746 
11 1 4.38607 4.39031 0.763004 -0.00547445 -0.0167155 0.0114753 
12 1 2.73743 -3.41337 2.35612 0.0215405 0.0228904 -0.0105165 
13 1 2.57585 -1.53433 0.304839 0.00584724 0.0536141 0.0319637 
14 1 1.02506 0.103623 1.62019 0.0161275 0.00497556 -0.0038611 
15 1 2.38059 3.40353 -4.73078 0.0058781 -0.00838474 -0.0114062 
16 1 -0.0471531 2.21442 4.69438 -0.00478061 -0.0161161 0.00885428 
17 1 0.175189 -2.22373 2.3744 0.0271525 0.0362023 -0.0202502 
18 1 -1.24619 4.51921 0.871048 0.00287324 0.0353711 0.0319054 
19 1 1.60634 1.15218 -2.96049 -0.0127521 -0.0480831 0.0439196 
20 1 -1.02727 2.12244 1.87288 -0.0362537 0.00171526 -0.0197472 
21 1 3.66802 0.867742 -0.792765 -0.00844376 0.0450856 -0.0273058 
22 1 -2.10131 2.34142 -0.877454 0.00913503 0.0047713 -0.0692782 
23 1 3.57285 -0.303659 2.75048 -0.0426337 0.0185171 -0.0250895 
24 1 0.369302 -4.68701 3.75766 0.0024562 -0.0121578 0.0249595 
25 1 4.05208 2.04867 -3.31549 -0.0373774 -0.0245464 0.0265224 
26 2 4.93227 1.84551 0.145894 -0.0122385 0.0317661 -0.0124656 
27 2 4.58651 0.88793 2.78025 0.000997711 0.0285233 0.0360531 
28 2 0.313083 3.25294 1.54257 0.0212291 0.0191264 -0.0111779 
29 2 -0.20692 1.76679 3.37792 -0.0151972 -0.0440349 0.0187216 
30 2 -0.801999 3.23181 -1.02026 0.0224475 0.0173134 -0.0056888 
31 2 3.17643 -2.19988 1.49116 0.0145568 -0.0140537 -0.017314 
32 2 2.55573 2.42891 0.617015 0.00693175 0.0276789 -0.0118533 
33 2 3.12956 -5.17694 1.95653 0.00825173 -0.0623289 -0.0568098 
34 2 2.15759 -0.0673123 -0.0872934 -0.042148 0.0236415 0.000276415 
35 2 2.93922 1.86015 -1.99144 0.038818 0.0674915 -0.023277 
36 2 -3.32873 2.27624 -1.74094 -0.0013732 0.0297863 -0.00790453 
37 2 1.63173 4.17836 -2.49276 0.0340278 -0.0299052 0.0299381 
38 2 1.02109 -3.24297 2.77222 0.00181651 -0.0039037 -0.0182952 
39 2 -0.253769 -0.921049 2.76959 0.00340565 -0.0293849 0.0223904 
40 2 -4.90751 3.25712 2.02234 -0.0307449 -0.0264176 -0.00464606 
41 2 -2.48272 1.9248 1.76585 0.0312894 -0.0141186 -0.00729517 
42 2 -0.046031 0.952663 0.819357 -0.0494347 -0.0165034 -0.014961 
43 2 0.792664 3.78418 4.71815 -0.0318648 0.0365933 0.0664955 
44 2 -1.96338 4.59577 2.20993 0.0125702 0.00285254 0.0116794 
45 2 4.10167 3.71392 -3.87681 0.0210148 -0.00122314 -0.0137707 
46 2 2.22818 -0.134843 2.97645 0.0582418 -0.000222669 0.00154842 
47 2 2.85812 2.58024 3.3313 -0.0423558 -0.0348013 0.0111736 
48 2 2.59083 1.43899 -4.37418 0.0541919 -0.0156753 -0.0381279 
49 2 0.281909 1.79586 -3.44464 -0.0123827 -0.00972058 0.0346022 
50 2 4.10123 4.1298 -0.944133 0.0201824 -0.00279743 -0.0363441 
