ITEM: TIMESTEP
0
ITEM: NUMBER OF ATOMS
5488
ITEM: BOX BOUNDS pp pp pp
-23.9397 23.9397
-23.9397 23.9397
-23.9397 23.9397
ITEM: ATOMS id type x y z vx vy vz c_mste 
1 1 15.4129 8.64305 -11.1375 -0.0137292 0.0226621 0.0150995 1 
2 1 23.3343 9.04239 5.45115 -0.00360183 -0.0259206 -0.0392099 1 
3 1 1.57508 9.57077 -20.6904 -0.00743166 0.0155863 0.0210512 1 
4 1 16.5119 -22.4841 16.2897 0.0149622 -0.0174827 0.0165159 1 
5 1 15.7617 8.14151 -4.04474 -0.0146883 -0.0357216 -0.0184673 1 
6 1 10.7167 21.903 -17.5492 -0.0228305 -0.0214659 -0.0446215 1 
7 1 -22.322 23.8703 -6.19321 0.036198 -0.026466 0.00344248 1 
8 1 -15.3126 -2.54566 -3.01424 -0.00863731 0.0204922 -0.0318842 1 
9 1 -1.30568 -16.8738 -9.09762 0.0176555 -0.0293339 0.0146028 1 
10 1 -8.83162 13.2813 15.2204 0.00363053 -0.00866036 -0.0253433 1 
11 1 -7.02189 -3.16846 11.8159 -0.0085499 0.00707759 -0.0106596 1 
12 1 -1.10944 -22.6975 22.9903 0.0152857 -0.0234684 0.0239576 1 
13 1 18.4622 19.2924 -3.90397 -0.0253111 0.0470053 0.00579338 1 
14 1 21.2542 1.74232 -11.5401 0.0228289 -0.0161073 -0.0465728 1 
15 1 -21.5784 -13.3389 -12.227 -0.0185631 -0.00429801 0.00509493 1 
16 1 2.49151 18.957 11.8522 -0.0179488 0.0152619 -0.0156063 1 
17 1 -10.9649 20.7191 11.0594 -0.0224317 0.00678864 -0.0174408 1 
18 1 -1.97114 -7.6825 8.60324 0.0169959 0.00605156 -0.0517607 1 
19 1 1.43005 -8.99588 11.5398 -0.00321417 -0.0136929 0.0362876 1 
20 1 8.12099 6.58284 19.3774 -0.00971402 0.0222485 -0.00280608 1 
21 1 10.2879 23.1282 -19.9729 -0.0109081 0.0253096 0.0139405 1 
22 1 14.7334 23.3347 -20.9624 -0.0546514 0.0122414 0.00409412 1 
23 1 -9.40725 21.3257 18.4875 -0.00962537 -0.00393128 -0.00110588 1 
24 1 -22.6031 18.7541 4.06875 0.00860068 0.004314 0.0252951 1 
25 1 4.83934 6.17127 15.0541 0.0176354 -0.0073202 -0.0421526 1 
26 1 -8.50946 19.7108 6.28043 0.0344497 0.00347663 0.00273047 1 
27 1 -4.81862 -2.0733 -23.2965 -0.0089357 -0.0161653 -0.0533242 1 
28 1 10.1194 -2.87159 8.16565 -0.00387575 0.00417457 -0.00383771 1 
29 1 -7.26481 0.985349 13.8648 -0.00877342 0.0619203 -0.000991735 1 
30 1 -15.7114 13.2678 20.8371 0.0187092 -0.0152171 -0.00163836 1 
31 1 5.73041 -23.2524 -5.93372 -0.00403187 0.0158794 0.0205251 1 
32 1 -4.36302 -19.1377 -11.8832 0.0174478 0.0132753 0.0143996 1 
33 1 20.1165 5.94113 -20.9937 -0.0114883 -0.00961931 0.044353 1 
34 1 -19.484 -14.5511 -7.42607 0.0295912 -0.0102781 0.0128613 1 
35 1 -18.2008 4.75558 -2.07687 -0.010053 0.029009 0.000269057 1 
36 1 -0.165333 5.10739 23.4297 -0.0312734 -0.026732 0.0086797 1 
37 1 -2.70399 -1.64121 1.38386 0.0209412 -0.0283125 0.0142196 1 
38 1 -8.55749 -15.7579 -6.77048 -0.0106592 -0.00824536 -0.0234269 1 
39 1 11.6518 4.50727 17.4971 -0.00788003 -0.0263428 -0.00993778 1 
40 1 -1.7945 -2.99721 -4.93039 0.00900294 0.00373002 -0.00271404 1 
41 1 5.73529 12.3595 -8.66558 -0.0345943 -0.0196496 -0.00430622 1 
42 1 -1.47734 -18.3524 0.807365 0.019122 0.0117388 -0.0164845 1 
43 1 10.0575 -21.7412 -12.2858 -0.0149277 -0.0383402 0.025428 1 
44 1 -9.04165 -18.2297 -11.1546 -0.0259225 -0.033254 -0.00129211 1 
45 1 21.9181 18.5166 -11.1742 0.0208313 -0.0103001 -0.00992308 1 
46 1 -12.1558 -19.9628 -18.9382 0.014157 0.000145677 -0.0272503 1 
47 1 -16.9217 -16.2308 8.39248 -0.0299651 0.010396 -0.00772911 1 
48 1 19.565 -23.5778 -9.08821 0.0246036 0.0125327 -0.0140151 1 
49 1 9.29243 -7.44551 -1.29409 -0.00687941 -0.00312337 0.00490899 1 
50 1 -1.09271 8.83703 -20.6076 0.0420606 -0.00749436 0.0221591 1 
51 1 -6.19847 8.18967 14.7865 -0.0470442 -0.0540015 -0.0113369 1 
52 1 -6.30127 -18.4935 -3.55621 -0.00697169 -0.0247075 0.048487 1 
53 1 16.5771 21.1607 3.59377 0.010142 -0.0518057 0.0191034 1 
54 1 12.1114 -10.2508 -17.835 0.0141254 -0.014839 0.0292525 1 
55 1 15.8984 -14.4357 18.5171 0.0127187 -0.0256361 0.019166 1 
56 1 -9.61686 18.2243 9.00058 0.0127124 -0.0398511 0.0155574 1 
57 1 -23.1162 20.8803 -5.56726 -0.0464943 0.0221215 -0.0100835 1 
58 1 -17.0956 -14.7257 -18.427 -0.0102442 0.0420863 -0.0205487 1 
59 1 -11.3329 -1.28893 -6.65616 0.0375507 -0.0230985 -0.0184402 1 
60 1 -22.121 22.3775 2.41154 -0.0105448 0.0413511 0.0322523 1 
61 1 18.4747 23.3692 18.0543 -0.00737404 0.0041803 -0.0235733 1 
62 1 19.4442 -22.5174 15.7978 0.0391172 -0.0355355 0.030604 1 
63 1 -19.7416 -11.3019 -12.6943 -0.0317021 0.0238397 -0.0403231 1 
64 1 -17.4334 -3.30549 16.862 -0.0134656 -0.00754449 -0.00777925 1 
65 1 -0.394596 -2.97086 -2.45524 0.0209248 0.00651876 0.00176177 1 
66 1 18.4645 22.0254 -3.32612 0.0577596 0.0340258 0.00137907 1 
67 1 -3.70528 14.1186 -9.87857 0.0214754 -0.0416107 0.00981149 1 
68 1 -10.0731 12.7529 6.81597 -0.022171 0.0279523 0.0109006 1 
69 1 -16.9566 -13.1854 17.2197 -0.00130033 -0.0239989 0.0459152 1 
70 1 3.06465 6.33705 19.8319 0.00749921 -0.0138593 0.0132588 1 
71 1 9.12583 -13.0586 -20.9839 0.0402963 -0.0230737 0.0392649 1 
72 1 18.4482 19.0769 -17.8324 -0.0430821 0.00894848 -0.027969 1 
73 1 -12.1874 -14.5342 -13.1062 -0.018591 -0.00263672 -0.0145315 1 
74 1 -9.1022 -0.360853 23.3737 -0.000463086 -0.00603915 -0.0184179 1 
75 1 -9.18789 -0.706704 -13.3617 0.0468722 0.0158855 0.0115241 1 
76 1 -18.1356 4.33974 11.7482 -0.00781573 0.0188814 -0.0122527 1 
77 1 -2.70417 -4.63899 8.42548 0.024623 -0.00176469 -0.0117635 1 
78 1 -3.24141 -18.0583 23.8731 0.00102425 -0.0325949 0.0104508 1 
79 1 -6.44957 -6.09269 -17.0101 0.00977725 -0.0291145 0.00252975 1 
80 1 16.7727 3.62247 22.5705 -0.0123425 -0.012044 0.0287929 1 
81 1 -19.7169 6.21251 11.169 -0.00283642 0.0414797 0.00885263 1 
82 1 -16.9664 -1.16464 4.81812 0.0159627 0.0222325 0.0359301 1 
83 1 2.62301 17.3857 17.2794 -0.00130517 -0.0189653 0.018624 1 
84 1 -11.7985 -15.9201 -22.8942 0.0250701 -0.00324104 0.021954 1 
85 1 4.59911 -23.1642 16.0812 -0.0119953 -0.0110782 0.00997004 1 
86 1 6.51634 20.0369 8.36406 -0.0091984 0.014706 0.0123555 1 
87 1 -14.5675 -17.8848 3.77186 0.00690362 -0.00682514 -0.0186547 1 
88 1 18.2193 -9.06291 18.5442 0.00631013 -0.0135589 -0.0246468 1 
89 1 -7.85604 -18.8024 -22.6383 0.0157862 -0.00212514 -0.00928837 1 
90 1 13.2627 3.88302 4.72439 0.00208634 -0.0182165 -0.00560166 1 
91 1 -4.29302 21.5832 21.2785 0.00916767 -0.0233358 -0.0161767 1 
92 1 23.6853 4.45649 -17.6791 0.00273257 0.0331843 -0.0261145 1 
93 1 -9.27098 15.6896 -5.5916 -0.0339539 -0.011911 -0.000955795 1 
94 1 -11.1536 0.725286 -18.2935 0.0216402 0.0153633 0.0193876 1 
95 1 9.19452 -0.387579 8.74865 -0.00272104 -0.0304535 -0.0203835 1 
96 1 -5.49936 -2.25114 -2.42959 0.006311 -0.0085816 -0.00280353 1 
97 1 16.6443 -11.9784 14.3343 0.0111989 -0.0212626 0.0155624 1 
98 1 -10.6996 21.9119 3.51603 0.0160781 0.00495433 -0.024703 1 
99 1 -17.5483 -2.71215 10.0542 0.0169193 0.0355964 -0.00199464 1 
100 1 -22.3082 -1.43033 15.0769 0.0267604 -0.0156592 0.0203136 1 
101 1 2.96728 22.399 -10.3619 0.0111833 0.0177928 0.0180729 1 
102 1 6.78718 -21.2255 1.2566 0.0325208 -0.0488422 0.00462316 1 
103 1 -16.297 3.54398 2.12228 0.026475 -0.00994385 -0.0332955 1 
104 1 2.02113 -19.8686 -5.85519 0.0098363 0.0307115 0.0243303 1 
105 1 0.12178 22.5541 -22.8796 0.0402839 -0.0396633 -0.0388166 1 
106 1 -22.7759 6.97602 6.87424 -0.0153288 -0.0133992 0.0258076 1 
107 1 3.24017 10.1952 3.65261 0.0298827 -0.0240913 0.000365118 1 
108 1 -3.12813 12.8702 3.009 -0.0344034 0.000538951 -0.0341133 1 
109 1 -6.92232 -7.22943 22.9904 0.00313338 -0.0405134 -0.00371665 1 
110 1 -21.7464 -13.9601 6.90545 -0.0116283 -0.0246969 0.0271444 1 
111 1 -12.2018 14.9895 5.62962 -0.0248201 0.00498515 -0.00282066 1 
112 1 -12.3457 17.1799 20.32 -0.0124388 0.0204554 0.0173703 1 
113 1 10.934 -11.4516 -22.6133 0.00106227 -0.0119456 0.0166417 1 
114 1 2.07294 -22.8321 2.26956 -0.0229617 -0.0108313 0.0053165 1 
115 1 -2.05908 -17.581 -11.4608 0.0267872 -0.0110021 -0.0242011 1 
116 1 -18.7854 0.530889 15.0795 -0.00367591 0.012582 0.0299223 1 
117 1 19.8876 16.7022 3.15564 0.0209168 -0.0233568 0.058477 1 
118 1 -5.3101 -1.8458 0.363278 -0.0297875 0.00606389 -0.012221 1 
119 1 -2.30318 -1.55308 -11.5857 0.0456524 -0.00243895 -0.0268835 1 
120 1 19.2346 -9.29921 5.53154 0.0113226 0.0174749 -0.00164352 1 
121 1 23.7921 3.47227 22.7119 0.0107676 0.00733316 -0.00498641 1 
122 1 -4.70703 -7.96897 23.6216 0.0087273 -0.0162209 0.0244561 1 
123 1 10.3216 -19.3003 3.12157 -0.00264595 0.0602357 0.00915616 1 
124 1 20.9519 23.7312 4.48511 0.00539736 0.0522519 0.00957576 1 
125 1 -0.300695 -6.25541 -16.642 0.0184952 -0.0349798 -0.0298535 1 
126 1 23.2327 8.02016 0.470592 -0.0223034 -0.0192006 0.00829642 1 
127 1 -6.11621 -3.61338 -15.232 0.0252467 0.00615982 -0.0279088 1 
128 1 16.4859 -1.07395 17.0354 -0.00521651 -0.00783019 0.00623898 1 
129 1 16.9459 -11.8131 20.2538 0.0619118 -0.0155251 0.00493486 1 
130 1 10.1898 7.26381 14.5136 0.00480115 0.0362718 -0.0123365 1 
131 1 -16.0108 -9.90477 13.3994 -0.0394955 0.0349892 -0.00723115 1 
132 1 -8.50642 2.88417 20.4758 0.0180662 0.00126561 0.00550961 1 
133 1 14.3517 -13.3196 20.8972 0.035395 -0.0311042 -0.00759543 1 
134 1 17.1562 -10.3222 11.8055 -0.000336941 0.0120447 -0.0158584 1 
135 1 23.2953 18.3255 -20.0154 -0.0100197 -0.0117837 -0.0100757 1 
136 1 11.6242 -22.2304 -9.91693 -0.00169161 -0.00189281 0.0310791 1 
137 1 2.67506 7.36138 -22.4643 0.000530365 0.0231832 0.0173279 1 
138 1 -3.27396 9.86793 -7.32946 0.0158132 0.000537151 0.00899129 1 
139 1 -23.5448 -23.3693 -8.91811 0.0138632 0.00919642 0.00442013 1 
140 1 -23.2693 20.2884 -19.7639 -0.0237734 0.00606696 -0.0125407 1 
141 1 -20.9472 18.5699 -6.68435 -0.014344 -0.0122394 -0.0183363 1 
142 1 -20.3828 5.58699 -1.75694 -0.0102781 -0.00639456 -0.00439108 1 
143 1 -21.4093 -13.8229 17.0742 -0.0180441 0.0203285 -0.00440502 1 
144 1 -17.5604 -18.0622 23.2652 0.0419179 0.0345256 -0.00971914 1 
145 1 -16.0292 19.579 -19.9161 -0.0121544 0.0153711 -0.00829806 1 
146 1 -0.295454 -12.4135 7.34354 0.0120413 -0.00116376 -0.0208382 1 
147 1 19.9415 -7.83208 2.85447 -0.0312315 0.017227 -0.0352011 1 
148 1 8.06488 7.80437 -0.871319 -0.0405136 0.0327589 0.0196089 1 
149 1 0.349224 -17.1007 9.00585 0.0186941 0.0230894 0.0113795 1 
150 1 -22.475 10.2011 14.9158 0.0214228 -0.00254911 0.00727693 1 
151 1 14.7847 -10.0719 7.40288 0.00370673 0.0219284 0.00212544 1 
152 1 3.35467 21.1039 -15.5015 0.0109012 0.0203696 -0.0345411 1 
153 1 4.22153 9.9362 -15.3588 -0.0388921 -0.0188977 0.0389115 1 
154 1 1.34501 -10.7074 8.68833 0.0479246 0.00557903 -0.0129894 1 
155 1 23.0627 8.48713 -4.83729 0.0153438 0.0253576 -0.0158123 1 
156 1 4.79357 -20.8661 -10.0898 -0.00478122 0.00145167 -0.00261374 1 
157 1 -18.766 -15.2418 2.49255 -0.00481631 -0.00783943 0.0101672 1 
158 1 -5.35244 -17.0946 -10.7272 -0.0190496 -0.0180627 -0.0238151 1 
159 1 -21.2078 -3.08974 20.9378 0.00443435 -0.00575859 0.0030813 1 
160 1 -14.7329 22.238 14.7531 -0.00257589 -0.0116628 0.0267386 1 
161 1 12.0457 21.0608 -6.21682 -0.0230524 -0.0240136 0.00783132 1 
162 1 -18.3003 2.344 -15.4398 -0.00788729 0.0282263 -0.0196547 1 
163 1 13.7894 -20.3156 0.162711 -0.0241312 0.0155078 -0.0463917 1 
164 1 15.9217 -4.85765 -3.11141 -0.00840645 0.0112229 -0.0433485 1 
165 1 13.4201 -10.2561 23.7027 0.0378296 -0.0431133 0.0023613 1 
166 1 17.9775 21.5846 1.07929 0.035736 0.0153056 -0.0143639 1 
167 1 -11.5135 11.1025 -9.0032 -0.0267747 -0.0086393 -0.0132609 1 
168 1 8.06769 6.11238 9.37954 -0.0118888 0.0106993 0.00932249 1 
169 1 13.6127 -5.80795 -7.46483 -0.0184741 0.0186085 -0.00682966 1 
170 1 -4.27866 -9.20807 3.9451 -0.0250486 0.000494296 -0.00895793 1 
171 1 8.70743 -3.09725 -7.55369 -0.00868721 -0.037982 -0.0137414 1 
172 1 -13.7101 13.0318 -20.3703 -0.00175215 0.000398943 -0.0319305 1 
173 1 13.0232 -3.80601 -1.15284 -0.0136939 -0.00393615 0.00277305 1 
174 1 2.24582 -17.1606 17.1863 -0.0206091 -0.0224973 0.0166252 1 
175 1 -6.31344 15.676 4.46491 -0.0597134 0.0466809 0.0145625 1 
176 1 -2.89619 11.0361 -19.4828 -0.00404705 -0.00932796 0.00714708 1 
177 1 20.8739 1.69042 -8.63797 0.00739364 0.0313377 0.000432338 1 
178 1 -17.1478 19.4378 -9.46056 -0.0241794 -0.0341461 -0.00104496 1 
179 1 12.7044 23.4021 -10.4056 0.00887037 0.0237619 0.00646408 1 
180 1 -4.68234 13.3352 -4.09978 -0.00197246 0.0138022 -0.000440744 1 
181 1 1.83868 -11.5908 -22.478 -0.0176341 0.00293799 -0.0029993 1 
182 1 11.5328 5.46193 2.35549 -0.0208081 -0.000792522 -0.0121883 1 
183 1 11.7629 -9.37707 21.0916 -0.0148379 0.0270493 -0.000225563 1 
184 1 16.089 6.47254 -18.0121 0.0358671 0.0247401 -0.00234344 1 
185 1 -1.54158 -4.80943 -22.2383 -0.0113248 0.000660147 0.0183763 1 
186 1 14.4374 -7.14294 7.3549 -0.0450706 -0.0278059 0.0108356 1 
187 1 4.04338 19.6501 9.66189 0.00359155 0.000650472 -0.0285982 1 
188 1 -20.2622 1.39249 21.7464 0.0205733 0.0174534 0.0254588 1 
189 1 2.00209 -21.7967 -0.0490232 0.0037936 -0.0151663 -0.00967553 1 
190 1 3.19734 -23.2156 12.8874 0.00188843 0.000767492 -0.00513948 1 
191 1 -6.86432 -23.49 22.3389 -0.00618896 0.0385809 -0.0269488 1 
192 1 -0.653947 -20.4773 -4.92772 0.0018572 0.00607609 0.0199067 1 
193 1 12.8388 -7.54997 2.88404 0.0158033 -0.0426157 -0.00270075 1 
194 1 -19.8089 -1.08437 22.8243 0.024021 0.0150731 0.00932453 1 
195 1 16.5004 5.45954 -3.33934 0.00331256 -0.0329036 -0.0342061 1 
196 1 10.3426 4.9673 9.7397 0.027924 0.0280745 0.0127966 1 
197 1 0.766759 -13.7517 14.734 0.0450462 -0.00377909 -0.000756673 1 
198 1 11.6092 -0.26915 2.41295 0.0072151 -0.0321841 -0.00696593 1 
199 1 7.21437 -3.42224 -10.0337 -0.00216065 0.0253855 0.0593454 1 
200 1 4.11481 7.78622 -14.4716 0.0204296 0.0127817 -0.0290599 1 
201 1 -22.6693 -11.771 2.12836 -0.0188257 0.00691098 0.0143463 1 
202 1 -14.6045 15.7636 19.4251 0.0480949 -0.0277722 -0.0121246 1 
203 1 -21.4583 -9.91804 -11.4271 0.0197081 0.0660648 -0.0103637 1 
204 1 -14.5126 19.7612 16.5822 -0.00322318 -0.0310536 0.0163149 1 
205 1 -16.428 -18.6755 9.16505 0.0259874 0.0115294 -0.00650265 1 
206 1 -9.47727 -19.711 -17.866 -0.0208453 -0.0321278 0.0330069 1 
207 1 2.77994 8.88908 -1.24623 0.0101917 0.0175106 0.00467319 1 
208 1 23.5222 1.89168 -8.2479 -0.0126265 0.0416648 0.0216235 1 
209 1 1.85879 23.2123 23.7202 0.00985547 0.0164318 -0.00348224 1 
210 1 21.9557 21.9424 -4.55056 0.0111418 0.036526 -0.0357358 1 
211 1 14.9527 22.1197 -10.193 -0.00551728 -0.0199316 -0.0111478 1 
212 1 -0.919318 -18.7531 -14.1814 -0.0470295 -0.00230991 -0.000273608 1 
213 1 10.9394 22.8581 0.942943 -0.0232153 0.0067706 -0.0026936 1 
214 1 21.8779 -9.20208 -7.12349 -0.0104707 -0.0266605 -0.00963966 1 
215 1 10.1829 2.57915 19.2021 -0.00705464 -0.0210946 0.0149444 1 
216 1 21.9533 22.2347 14.2292 0.0121492 -0.0151799 -0.00157787 1 
217 1 5.19619 12.4052 14.8109 0.0305275 -0.0128408 0.0234148 1 
218 1 0.125393 16.1021 -5.88625 0.00242743 0.039925 0.0028014 1 
219 1 -15.2316 -10.1841 10.4499 0.0222084 0.0061876 -0.000489144 1 
220 1 17.2536 2.19364 -18.0646 0.01644 0.024215 -0.00227266 1 
221 1 -20.2521 0.604917 7.75599 0.00300038 0.0136443 0.00960244 1 
222 1 -14.7029 18.7453 -17.2199 0.00864724 -0.039527 -0.00837295 1 
223 1 14.6945 23.7148 -15.7171 0.0134298 -0.0306682 0.0233137 1 
224 1 -15.3858 -17.5859 21.7234 -0.00373546 -0.00329284 0.0106421 1 
225 1 6.42136 4.22324 9.64718 -0.0359683 -0.0167495 0.0116842 1 
226 1 -6.99585 14.9913 13.2282 -0.0180226 0.0274274 0.0282222 1 
227 1 -21.2276 -13.5632 -22.9484 -0.0116157 -0.00734846 0.0288835 1 
228 1 16.7143 -5.7327 -6.05882 -0.00405008 -0.0664555 -0.0294974 1 
229 1 14.3555 -15.4579 -19.1776 0.0212126 0.00724789 0.0149206 1 
230 1 15.975 -7.0928 -15.1062 -0.00120046 -0.0346181 0.028904 1 
231 1 10.5103 -1.88897 16.8159 -0.00701048 -0.00400865 0.00152585 1 
232 1 4.55859 13.4891 -10.93 0.0275685 0.0191657 -0.0336879 1 
233 1 19.1567 -19.8937 10.456 0.0142898 -0.0155579 0.00161229 1 
234 1 -15.4665 -21.9574 16.6825 -0.00277681 0.0194813 0.0191754 1 
235 1 15.0089 -6.58233 1.7138 -0.0375851 -0.0283743 -0.0410968 1 
236 1 -18.0906 -2.0214 7.39239 0.0110244 -0.0148157 0.020569 1 
237 1 10.2921 -7.4967 -18.4141 -0.0130743 0.0169548 0.00830381 1 
238 1 11.149 5.25354 15.2979 -0.0232587 0.00779463 -0.00971035 1 
239 1 -17.9293 0.760983 -4.84648 -0.023373 0.00629722 0.0230555 1 
240 1 8.79697 -0.453937 12.1359 -0.0344525 0.0275834 0.0211155 1 
241 1 6.29715 20.6696 -19.3292 0.0030713 0.00519242 -0.00290648 1 
242 1 18.9722 17.785 10.643 -0.0193592 -0.0192017 -0.0216712 1 
243 1 14.7872 -11.8646 18.9265 -0.000185707 0.00156384 0.0137952 1 
244 1 11.2836 -7.55007 -8.51171 0.00728794 -0.00954666 0.0154544 1 
245 1 -11.1219 -2.05519 -14.2203 0.00208246 -0.00290583 0.0452144 1 
246 1 5.84242 8.34031 5.69154 0.0116845 -0.0227482 0.00179781 1 
247 1 -7.38701 16.3002 -12.91 -0.024563 -0.0147425 -0.00105259 1 
248 1 0.547518 23.1474 11.6911 0.0097131 -0.0184424 0.00414318 1 
249 1 17.3658 -7.47636 -4.15151 -0.0205986 0.0137478 -0.00817118 1 
250 1 14.1265 6.9426 -2.91575 -0.0064257 -0.050252 -0.0210962 1 
251 1 10.5771 -9.47033 -16.1183 -0.0107422 0.0036313 -0.0113789 1 
252 1 2.99373 12.0962 -2.27128 0.0159968 0.00658961 -0.0258726 1 
253 1 -5.82679 2.62101 8.00233 0.016417 0.0315462 0.0420171 1 
254 1 -1.87927 0.446512 3.17703 -0.000675835 0.0340544 0.023339 1 
255 1 -1.96946 -13.7544 2.91517 0.0200892 0.00909576 0.0232521 1 
256 1 -11.0093 -19.9553 22.1642 -0.0120395 0.0114407 0.00601503 1 
257 1 17.651 -22.6036 1.23053 -0.0126739 0.00892234 -0.00813316 1 
258 1 0.920816 -8.86917 -22.007 0.0196575 0.0181026 -0.00974865 1 
259 1 7.10707 -5.03786 -8.11919 -0.018383 0.0138864 0.018049 1 
260 1 -12.4863 -19.7829 10.2469 0.0319522 -0.00809991 0.00615668 1 
261 1 23.2482 10.3464 13.1366 -0.0292972 -0.0856684 0.00649592 1 
262 1 -16.2374 15.7268 -20.7752 -0.0299647 0.0492046 -0.0337805 1 
263 1 2.40359 22.6289 16.667 -0.00627484 -0.00330612 -0.00680286 1 
264 1 -1.56504 -10.2285 9.54978 -0.00422817 -0.00445809 0.023492 1 
265 1 5.33678 8.37376 -0.810063 0.0247903 0.00602264 0.0370954 1 
266 1 -4.62034 11.8959 -9.65099 -0.0275192 -0.00269944 -0.00247262 1 
267 1 -12.3957 16.2609 9.71747 -0.0146584 0.0561583 0.00722243 1 
268 1 4.39595 -18.5119 15.4062 0.010368 0.0457331 0.002396 1 
269 1 -14.8046 -12.8138 -4.44748 -0.0178126 -0.0280731 -0.00321849 1 
270 1 3.83034 -3.78612 -2.69441 0.0128244 0.0155608 0.0111287 1 
271 1 3.99912 10.8956 8.42066 0.00435528 -0.039752 -0.0271757 1 
272 1 -2.87799 -6.57455 -16.9873 0.00358526 -0.0163779 0.00695124 1 
273 1 -7.81259 -2.40818 5.17459 -0.00417424 -0.0127194 0.0279872 1 
274 1 11.3925 -8.60268 -21.8415 -0.00347704 -0.011296 0.0112177 1 
275 1 -6.64955 -1.13161 -14.7853 0.0596576 0.0140206 0.0163305 1 
276 1 1.3606 -6.33532 16.5688 -0.0122681 0.00793913 0.0242818 1 
277 1 21.2383 -11.7888 -23.2688 -0.0195816 0.0171699 0.00426292 1 
278 1 18.0368 -21.955 -4.55149 -0.0247692 -0.00917703 -0.0129007 1 
279 1 13.4153 -9.97824 5.10184 0.0202314 0.00507459 -0.0399551 1 
280 1 -5.04172 1.65769 15.5322 -0.0122399 0.0152619 -0.0037865 1 
281 1 4.52675 -6.9099 -18.0645 -0.0123682 0.0299925 0.036729 1 
282 1 -5.71113 14.0408 1.85009 -0.00479591 0.0147982 -0.0255881 1 
283 1 5.01855 22.4432 -4.7511 -0.0127771 0.0384564 -0.00354274 1 
284 1 18.8473 17.0209 5.46717 -0.00838929 -0.0197462 -0.00230935 1 
285 1 23.8501 17.2708 8.0709 0.0377426 0.00967209 -0.0379708 1 
286 1 4.81303 10.4408 6.23122 -0.0518879 0.0121666 0.0213376 1 
287 1 -0.623413 -16.6512 -2.91394 6.74803e-05 -0.00289941 0.00439247 1 
288 1 -14.7278 23.4517 5.0639 -0.0100206 -0.0426534 0.0109954 1 
289 1 -1.02621 13.9769 -0.558715 0.0111745 0.0388457 -0.00472818 1 
290 1 0.771346 -7.79308 -18.8269 0.00182517 -0.0407049 -0.00838273 1 
291 1 14.1846 18.0019 -23.9299 0.00290854 -0.00719589 0.00561752 1 
292 1 0.641096 -4.6314 -0.818975 -0.00986218 -0.0215959 -0.0483726 1 
293 1 -16.8944 18.1498 -7.28846 0.0164744 0.00761494 -0.0320145 1 
294 1 23.4707 -12.1153 -3.2201 0.0108905 -0.0363157 0.0168029 1 
295 1 -17.8761 -13.3864 22.0835 0.0123857 -0.00728729 0.0197682 1 
296 1 17.0463 -12.993 11.6312 -0.00465647 0.00340721 0.010017 1 
297 1 -4.40244 -0.856301 13.3789 0.0124626 -0.0165184 -0.0118413 1 
298 1 -2.43449 -8.87143 -22.3132 -0.0185724 -0.0112181 -0.00277629 1 
299 1 -3.34247 -18.2138 -7.04889 0.00285043 0.0148727 0.0126662 1 
300 1 20.2345 8.09533 7.62305 -0.0236464 0.0144776 -0.0586011 1 
301 1 -12.3452 -13.2303 -6.50578 0.00534717 0.019251 -0.00109292 1 
302 1 14.3888 -4.35186 13.0247 0.0304334 -0.0196463 0.0285283 1 
303 1 -6.40615 -4.01079 -21.5151 -0.0119581 -0.00901489 0.0250859 1 
304 1 -22.3868 17.7288 -18.5274 0.0236781 -0.0323706 0.00371323 1 
305 1 -15.328 -14.0435 -1.75543 0.031148 0.0139392 0.0260034 1 
306 1 12.7624 7.84393 14.2925 0.0396735 -0.0297696 0.0308654 1 
307 1 -17.1466 15.7925 -8.82829 -0.0114623 0.00501545 0.0245714 1 
308 1 -8.65123 2.24058 6.76113 -0.0147876 -0.0149908 -0.00364296 1 
309 1 -10.5612 9.47042 12.018 -0.0454951 -0.0363654 0.0175177 1 
310 1 2.00635 -21.5222 22.9521 0.036087 0.0177451 0.00863353 1 
311 1 5.20402 10.4274 10.5238 -0.0213527 0.0221199 -0.00347617 1 
312 1 15.6015 23.6715 2.1453 0.0239974 -0.00480195 0.0184301 1 
313 1 14.5502 21.5646 5.29589 0.0233547 0.000269845 -0.0734421 1 
314 1 1.1089 -0.790609 1.02305 0.0463249 -0.0348831 0.00386427 1 
315 1 18.7622 -10.5019 -13.8562 0.0495207 0.00446113 0.00838118 1 
316 1 -13.685 -21.7398 18.5463 0.0113611 0.019127 -0.0221387 1 
317 1 -4.22691 2.26932 10.2704 4.62504e-05 0.0333555 -0.00494975 1 
318 1 -20.2219 6.88844 3.41906 0.00711939 0.0506879 0.0267199 1 
319 1 -5.74908 10.8571 17.1542 0.00695971 0.0207703 -0.0613032 1 
320 1 -14.328 -13.7106 -15.2067 0.0175656 -0.00824676 0.00516449 1 
321 1 15.9563 -5.53482 5.3154 0.0190159 -0.0542634 -0.0333084 1 
322 1 20.2708 5.66675 -5.53524 -0.019588 -0.00513256 0.00595919 1 
323 1 22.2898 17.2437 -23.3385 0.0123655 0.0102672 0.0210104 1 
324 1 16.8082 -15.1666 13.3288 0.0131235 0.0473627 0.00789383 1 
325 1 -10.7137 21.4828 13.4625 0.0139868 0.0132164 0.0294729 1 
326 1 16.4275 22.9976 -0.292099 0.0115287 0.0301579 0.0153021 1 
327 1 13.8917 21.3976 -16.8815 0.003664 -0.0191644 -0.0168633 1 
328 1 6.22293 -2.99787 1.43081 0.0313325 0.0199193 0.0195189 1 
329 1 -16.9815 2.42401 -9.82527 -0.0145238 0.0313876 -0.00368176 1 
330 1 -12.3953 14.4496 -17.7327 0.0202068 -0.02262 -0.0228941 1 
331 1 -3.73007 1.29969 -5.96831 0.0142542 0.00527213 -0.0183589 1 
332 1 7.86063 -19.1884 -5.67774 0.063943 0.0286133 -0.00343022 1 
333 1 13.9723 22.4026 0.202901 0.00166316 -0.00305649 0.0328071 1 
334 1 -13.1324 0.959582 -10.8199 0.0135904 0.0422666 -0.00857484 1 
335 1 18.377 6.3995 -4.22304 -0.013429 -0.0254135 0.000575062 1 
336 1 -17.7093 4.96043 -11.0306 0.0157988 0.00324877 0.0616861 1 
337 1 13.1077 23.0085 -5.11926 -0.0013178 -0.00287407 0.0038147 1 
338 1 10.0943 -7.40711 -10.8397 -0.00429241 0.00622403 0.0143218 1 
339 1 5.63319 9.06781 3.11378 0.0307032 0.0288381 0.0382016 1 
340 1 -1.58372 -7.15279 21.2836 -0.02477 0.015265 -0.00920166 1 
341 1 -22.6879 -1.02574 19.7231 -0.00213606 0.0523184 -0.024393 1 
342 1 -8.44528 7.65276 16.0151 -0.052735 0.0260394 0.0227311 1 
343 1 3.7853 7.11677 -20.1154 -0.0659856 0.00627819 0.00682079 1 
344 1 10.0666 6.66781 -10.4121 0.00901067 -0.0202507 0.0419956 1 
345 1 7.93428 -1.49226 15.0105 0.0410643 -0.0203815 -0.00329209 1 
346 1 16.6369 -23.6877 -13.8425 0.0259428 0.00830083 -0.0384757 1 
347 1 -7.11302 11.2869 -4.29411 0.0160741 0.0188674 0.00697548 1 
348 1 22.5447 11.7535 18.3046 0.00183252 -0.032822 0.0229434 1 
349 1 23.3157 -0.0580056 -9.90112 -0.0259768 -0.062145 0.000358663 1 
350 1 -0.480565 -20.4484 -20.6696 0.00144684 -0.00353979 -0.0267724 1 
351 1 7.17149 21.6142 14.9629 -0.0225352 0.00679726 0.0100882 1 
352 1 18.2758 19.1331 12.8774 -0.0165734 -0.00253601 0.0330191 1 
353 1 3.96034 -10.4355 18.7403 0.0280217 0.0394888 0.025575 1 
354 1 -22.5441 18.3566 -14.724 -0.0220422 -0.0197679 -0.0184736 1 
355 1 13.5779 -16.8439 6.31018 0.0204385 -0.0355207 0.0294887 1 
356 1 13.7075 5.77823 18.5498 0.0334129 -0.00998982 -0.00253687 1 
357 1 -22.0567 19.2629 6.8274 0.0115569 -0.00614512 0.0063667 1 
358 1 -14.3069 -17.1657 10.0258 0.0011003 -0.0397194 0.00250457 1 
359 1 11.4061 6.95826 -3.08935 -0.0212063 -0.0273471 -0.0149404 1 
360 1 -1.83165 -0.861779 5.64575 0.00339306 -0.0212351 -0.00444554 1 
361 1 22.7054 17.0564 -18.0154 0.000517521 0.0217697 -0.00515052 1 
362 1 -7.52257 11.2709 10.3296 0.0148344 0.0284123 0.0170294 1 
363 1 -16.2529 -15.9944 3.40682 0.0159949 -0.0400046 0.0146328 1 
364 1 19.7913 -20.837 13.8769 0.0226132 -0.0283019 -0.0191278 1 
365 1 -9.08387 11.9225 -1.78599 0.0153625 0.00273966 0.0117592 1 
366 1 -20.4257 23.2299 -9.35022 -0.0242241 0.0150609 0.0157811 1 
367 1 5.0791 -23.7141 -20.9868 0.00544308 0.0202087 0.000668545 1 
368 1 -2.96697 -7.76445 -19.6974 0.0569302 0.00990612 0.00404161 1 
369 1 -14.0157 -2.64313 -20.378 -0.0229354 0.0129933 0.00930445 1 
370 1 22.0839 21.558 -12.0197 -0.0246344 0.00451064 -0.0112774 1 
371 1 15.7667 19.6248 -10.9803 -0.0249164 -0.0394568 -0.0308283 1 
372 1 -6.56127 -16.4445 -1.34929 0.00899988 0.014659 0.00576145 1 
373 1 15.6706 8.3952 -7.11252 -0.0401498 0.0206699 -0.0258094 1 
374 1 21.8521 6.23622 19.7446 0.0254099 -0.000380302 0.00266125 1 
375 1 11.7627 3.82422 22.246 -0.00922291 0.0463528 0.016859 1 
376 1 -10.6926 -15.9022 -20.8755 -0.0327425 -0.014192 -0.0172831 1 
377 1 12.357 -21.3287 4.39914 0.00335385 -0.00615375 0.0244203 1 
378 1 4.69888 22.1105 9.71384 0.0197005 -0.0146991 0.0250595 1 
379 1 4.26982 11.8437 20.628 0.0239163 0.0695489 0.0116488 1 
380 1 -13.5093 -20.2988 22.2571 0.0190495 -0.00472392 0.046125 1 
381 1 -0.127778 -11.1407 15.907 0.0265338 0.0505265 0.0167106 1 
382 1 -22.4031 -14.0168 19.269 0.0104774 0.0473521 -0.0190889 1 
383 1 12.3511 -12.1627 16.9287 0.00926182 -0.00156 -0.00686876 1 
384 1 14.5196 -7.47984 4.7769 -0.0233039 -0.0344883 0.0219878 1 
385 1 -5.9951 8.97306 8.11494 -0.0196948 -0.00693652 0.00597207 1 
386 1 -9.39463 22.709 11.8918 0.0276958 -0.0143306 -0.0314839 1 
387 1 23.0323 3.1077 16.7099 0.0122832 -0.0108056 0.0310067 1 
388 1 -4.71481 6.91734 22.2032 -0.0113039 0.0481295 -0.0285235 1 
389 1 15.0906 23.2166 -18.3625 -0.00378155 -0.0082438 -0.0180587 1 
390 1 11.6235 -23.3086 -3.0672 0.00365696 -0.0443617 0.00445541 1 
391 1 -18.0768 -1.46433 -2.59431 -0.0286968 0.0192373 0.0272477 1 
392 1 20.6335 18.4324 -5.90968 0.0380199 0.0301953 0.0670269 1 
393 1 1.83323 -22.6723 5.05844 0.0273928 -0.0199411 -0.0363812 1 
394 1 -1.64516 -10.1568 4.31743 0.0310033 -0.00180084 -0.0235118 1 
395 1 13.9378 -11.973 11.724 0.024074 -0.000454814 0.00537352 1 
396 1 -19.451 16.7074 -13.4332 -0.0156839 -0.0120087 0.0194913 1 
397 1 -19.0626 -10.1065 18.9044 0.0209621 0.0315476 0.0243868 1 
398 1 -10.9576 -16.0577 -1.45773 -0.00951508 -0.00556583 -0.027511 1 
399 1 -19.2099 -14.443 13.0126 -0.0116447 -0.0320191 -0.0274993 1 
400 1 18.9467 -12.9573 -21.5965 -0.0138478 -0.00293825 -0.0360432 1 
401 1 18.6363 3.64593 -21.219 -0.00712782 0.0198695 -0.029322 1 
402 1 -5.7596 13.9186 -12.0277 -0.0219356 -0.0016036 0.0166226 1 
403 1 -19.0457 -14.1285 -20.4575 -0.0427949 -0.00620898 -0.028368 1 
404 1 -19.6522 -1.61405 18.8135 -0.00340564 -0.0212572 0.0324983 1 
405 1 -20.525 18.0166 -1.30542 0.00428014 -0.0306447 -0.0214702 1 
406 1 -13.1821 -12.4164 -9.36914 0.0169759 0.00179919 -0.0302761 1 
407 1 23.8135 -12.0783 -10.6268 -0.00106122 -0.0164817 -0.0228403 1 
408 1 7.54766 2.95857 -22.3437 -0.0163532 0.00914104 -0.00889059 1 
409 1 7.47241 -8.5293 -7.17989 -0.0159688 0.0155078 0.0256195 1 
410 1 -13.4502 12.8637 -10.7639 0.00549091 -0.000852306 0.00777862 1 
411 1 -10.1133 12.1952 -23.2709 -0.0200187 -0.0328127 0.00583037 1 
412 1 -18.9461 13.9801 -20.7899 -0.0283444 -0.0154932 0.00437742 1 
413 1 -7.23877 14.9975 -14.9802 -0.00692631 -0.0088529 0.00633628 1 
414 1 0.160183 -3.24237 -12.5824 0.0408761 0.0117865 0.0126169 1 
415 1 -0.742214 12.3153 -10.0504 0.00612537 0.0171568 -0.0179035 1 
416 1 -3.97769 8.0863 -20.5719 -0.00660881 -0.00334314 -0.00167245 1 
417 1 -11.1126 -12.2251 -4.02482 0.0279065 -0.0285477 0.0336078 1 
418 1 5.4313 -7.7561 -1.98354 -0.0246639 -0.00733866 -0.014464 1 
419 1 9.52555 -22.8151 -15.1855 -0.0302703 -0.0155186 0.00926684 1 
420 1 2.17131 -20.8374 12.1676 0.0112691 0.0205524 -0.0391732 1 
421 1 11.1358 8.02496 -23.9008 -0.0201775 0.0166258 -0.00165932 1 
422 1 -0.11705 -3.52559 -10.0869 0.0303988 0.00581528 0.0130629 1 
423 1 13.9203 20.5981 -12.0753 0.0274326 -0.0145699 -0.0186324 1 
424 1 15.4899 9.68853 -13.9612 -0.024778 0.0166817 -0.00488228 1 
425 1 5.86161 10.5767 1.38144 0.0258767 0.0632165 -0.0255657 1 
426 1 13.1298 -21.8824 -4.84687 0.0236687 0.0142702 -0.0188075 1 
427 1 -20.8809 -2.93004 23.8363 -0.0061493 0.053302 -0.023569 1 
428 1 -7.74114 -21.3194 -23.4517 -0.0320291 0.051571 -0.00863138 1 
429 1 -9.9407 17.8341 -6.81386 -0.0282675 0.00609662 -0.01411 1 
430 1 -0.949221 -7.67843 16.4883 0.0270032 0.0122419 0.00934776 1 
431 1 22.5985 -9.74935 6.31757 -0.00778187 0.0018237 -0.00366693 1 
432 1 14.2337 -3.42963 4.97532 0.0138669 0.00685777 -0.0222041 1 
433 1 -11.9117 -12.6115 -1.0388 -0.000385605 -0.0270361 -0.00290327 1 
434 1 17.7034 20.7502 -15.2269 -0.00885853 0.0278093 -0.0352578 1 
435 1 4.03259 11.8911 12.4389 0.00766389 -0.0362053 0.0450318 1 
436 1 3.43534 -7.43514 -20.8319 -0.0313602 0.0012615 -0.0237318 1 
437 1 20.8087 17.5447 12.1499 -0.00975197 0.0177987 -0.00123203 1 
438 1 2.46215 23.454 -18.9128 0.0127403 -0.00693623 -0.00814915 1 
439 1 -19.132 17.6431 -8.51055 0.00576202 0.0304825 0.0099099 1 
440 1 -3.36939 -22.7794 -10.9637 0.0486521 -0.0147215 0.000763377 1 
441 1 4.7288 14.5957 13.7413 -0.00520293 -0.0263189 -0.0306858 1 
442 1 -0.333461 -10.3667 23.148 -0.00571168 0.0344537 0.00786146 1 
443 1 5.05847 4.19359 20.8087 -0.0307011 -0.0072119 -0.00206597 1 
444 1 -1.34295 -18.6626 -22.294 0.027422 -0.0562451 -0.00996771 1 
445 1 -8.29377 20.2148 14.1652 -0.00443808 0.0197071 -0.0250822 1 
446 1 -6.78285 -4.15951 -12.359 -0.0343364 -0.00176301 -0.0268578 1 
447 1 -22.8055 16.2753 -15.6749 -0.00286679 -0.00471418 0.0149064 1 
448 1 4.96197 10.1652 -2.92339 0.0134922 -0.0292435 0.0117273 1 
449 1 -10.3879 -2.32241 -17.4073 0.00501827 0.0194738 -0.01064 1 