ITEM: TIMESTEP
0
ITEM: NUMBER OF ATOMS
8
ITEM: BOX BOUNDS pp pp pp
0 2.20677
0 2.20677
0 2.20677
ITEM: ATOMS id type x y z vx vy vz 
1 1 0 0 0 -0.385482 -0.440336 -1.82706 
2 1 1.10339 0 0 -0.205055 0.553018 -0.00154427 
3 1 0 1.10339 0 -1.07964 1.40877 -0.150027 
4 1 1.10339 1.10339 0 0.373306 0.709803 -0.947777 
5 1 0 0 1.10339 0.826996 1.97709 0.00930149 
6 1 1.10339 0 1.10339 0.546208 -1.19221 2.04767 
7 1 0 1.10339 1.10339 -1.47071 -1.77526 1.38738 
8 1 1.10339 1.10339 1.10339 1.39437 -1.24088 -0.517947 
