ITEM: TIMESTEP
100
ITEM: NUMBER OF ATOMS
50
ITEM: BOX BOUNDS pp pp pp
-5 5
-5 5
-5 5
ITEM: ATOMS id type x y z vx vy vz 
1 1 0.42265 -2.5571 -0.260936 -0.00191032 -0.0118777 -0.0315393 
2 1 -3.95495 0.834265 -4.77915 -0.0243511 -0.0124283 0.00124056 
3 1 -1.90041 -1.11743 1.1202 -0.00543277 -0.0191583 0.0160766 
4 1 4.55444 2.26593 -2.46173 0.00780921 -0.0127608 -0.0138695 
5 1 -2.65722 -1.5131 -4.99736 0.0139557 0.0371121 0.00600537 
6 1 -3.8001 4.21945 -3.29142 7.4075e-05 -0.00931533 0.0642065 
7 1 2.12095 -0.636427 -5.5275 -0.0420028 -0.0613095 -0.0241904 
8 1 3.45758 -1.44244 -2.57193 -0.0527436 -0.00721201 -0.0386547 
9 1 3.48401 -2.24947 -0.118124 0.0193117 0.0316689 -0.000757057 
10 1 2.37285 -2.50107 2.81245 0.00668056 0.0368212 0.0451436 
11 1 0.607987 0.342379 -2.12672 0.0194811 -0.0534334 -0.0127541 
12 1 -1.91864 -3.81922 -3.09306 -0.0339304 -0.00995276 -0.00511077 
13 1 -0.454144 -0.691247 -4.24332 -0.0453514 0.0545126 0.0187812 
14 1 -4.56192 4.54685 2.42004 -0.00566929 0.0136644 0.0184248 
15 1 3.15056 1.74158 2.8851 0.0492753 0.0242303 0.0017232 
16 1 -2.99694 -0.227201 -1.33093 -0.00779475 0.00556618 0.0234589 
17 1 -2.02181 -3.76571 -0.0334557 0.0202167 -0.0198986 0.0127647 
18 1 4.73688 -2.08161 4.74382 -0.0239305 -0.0917697 -0.0452751 
19 1 -4.60191 -0.12398 3.45254 -0.00608569 -0.015069 -0.00713577 
20 1 -1.18682 -1.79774 -1.92603 0.0215624 0.0169204 0.0494961 
21 1 4.73836 3.63372 4.49686 0.0113364 0.0236885 -0.0215679 
22 1 3.71173 0.185107 -0.605487 -0.0162994 0.0690915 -0.0484998 
23 1 -0.934154 1.27422 -4.21789 0.0328853 -0.00650556 -0.0420004 
24 1 2.03143 1.66368 -3.86521 -0.0199303 0.00181831 -0.0738397 
25 1 4.47917 2.3697 0.504314 0.0454572 -0.0185345 -0.0176625 
26 2 -3.77627 2.31126 -3.21812 -0.0171857 -0.0215472 0.0114753 
27 2 -1.32432 -3.52275 -1.41355 0.00893039 0.0112711 0.0277977 
28 2 0.383163 -1.49731 -1.47492 0.0142236 0.00187183 0.0373775 
29 2 -2.27299 0.339116 -4.85221 0.0266921 0.00201935 0.0223544 
30 2 3.27774 1.77653 1.20179 0.00658984 -0.0245774 -0.0503548 
31 2 -1.64332 -0.704725 -2.73812 0.0429612 0.0133306 0.0198196 
32 2 -2.47934 -1.20005 -0.202577 0.0353994 -0.00927714 -0.040706 
33 2 -4.08343 1.44534 3.60937 -0.0454475 -0.0167395 -0.00141513 
34 2 3.44388 0.643791 3.58596 0.0303706 -0.00113383 -0.011875 
35 2 0.49697 1.28878 -4.03745 -0.0490265 0.0216785 0.0278679 
36 2 -2.06983 4.55189 -3.96767 0.0107254 -0.035462 0.0177251 
37 2 3.45925 2.37273 -3.85384 0.0593961 -0.00596805 0.0720113 
38 2 4.32682 3.49871 2.75696 -0.0150133 0.00671203 0.0145748 
39 2 1.02886 -1.18578 -4.42251 0.00509575 -0.0139301 0.00154053 
40 2 4.74722 4.43114 -4.42235 0.0513485 0.0404737 -0.00486545 
41 2 3.46052 -2.56878 3.93966 -0.00241366 -0.00219563 -0.0214794 
42 2 2.10544 0.31903 -2.32951 -0.0228741 -0.0153092 0.0613958 
43 2 -3.56937 -4.12135 2.34786 -0.02338 0.0337767 -0.0386172 
44 2 -0.717301 -2.45079 0.930498 -0.0316941 0.00927774 -0.0224585 
45 2 2.54211 -2.4985 1.20133 -0.0172992 0.020088 -0.0517534 
46 2 4.07708 -1.33942 -1.15745 -0.00522868 -0.00735422 0.00702616 
47 2 -4.8689 1.30814 -0.967921 -0.033221 -0.0485161 -0.0364379 
48 2 4.7028 -1.60479 -3.8756 0.0642676 0.019663 0.0232667 
49 2 -3.88132 -1.12875 4.19102 -0.0149148 0.00499187 0.0477092 
50 2 -1.74951 -2.52858 -4.07428 -0.0409151 0.0509871 0.0135563 
ITEM: TIMESTEP
200
ITEM: NUMBER OF ATOMS
50
ITEM: BOX BOUNDS pp pp pp
-5 5
-5 5
-5 5
ITEM: ATOMS id type x y z vx vy vz 
1 1 0.503505 -2.69439 -0.241032 0.0307228 -0.0155003 0.0388785 
2 1 -3.97874 0.93472 -4.55141 0.00244018 0.0199195 0.0251071 
3 1 -1.83386 -1.48048 1.17884 0.0016368 -0.0295526 -0.010796 
4 1 4.87547 1.89612 -2.56164 0.036508 -0.0613098 0.0178426 
5 1 -2.72605 -1.14092 -4.81167 -0.0501442 0.0310919 0.0162947 
6 1 -3.67737 3.89586 -3.10587 0.0257437 -0.0426074 -0.0262582 
7 1 1.9193 -1.01497 4.44932 0.0145572 -0.0117325 0.00313837 
8 1 3.15055 -1.3132 -3.03914 0.0043144 0.0314148 -0.029298 
9 1 3.59743 -2.08206 0.125077 0.0113096 0.0204209 0.0217366 
10 1 2.43162 -2.41248 2.55654 0.00170379 -0.0142809 -0.100452 
11 1 0.742957 -0.342777 -2.178 0.0184513 -0.050868 0.000304184 
12 1 -2.05069 -3.89612 -3.29828 0.00131487 0.000394713 -0.0271483 
13 1 -0.758452 -0.795281 -3.87534 -0.0102941 -0.0346182 0.0445914 
14 1 -4.54313 4.93044 2.42011 -0.00550826 0.042344 -0.0108713 
15 1 3.79099 2.12469 2.62406 0.0683884 0.0192401 -0.0349321 
16 1 -3.22136 -0.0923585 -1.35227 -0.0343568 0.0175688 -0.0260216 
17 1 -1.79151 -3.74148 0.226807 0.0184596 0.0143629 0.0271833 
18 1 4.77487 -2.90433 4.56172 0.0304232 -0.0560062 0.00798121 
19 1 -4.95352 -0.111722 3.14187 -0.0559461 -0.00160996 -0.0158112 
20 1 -1.16684 -1.72615 -1.43653 -0.0298617 0.0114026 0.0360831 
21 1 4.72391 3.55429 4.49225 0.00145203 -0.0157879 0.0443498 
22 1 3.32312 0.700792 -1.14186 -0.0652887 0.0193387 -0.0342952 
23 1 -1.25069 1.79831 -4.69583 -0.044613 0.0809037 -0.0321951 
24 1 2.01696 1.67088 -4.36246 0.00883733 -0.00174184 -0.0152397 
25 1 4.93206 2.08742 0.348157 0.0370193 -0.0444298 -0.0246381 
26 2 -3.94049 2.1942 -3.2213 0.0200429 -0.00324141 -0.0265488 
27 2 -1.30059 -3.47831 -1.36558 0.0012953 -0.00403852 -0.0141051 
28 2 0.56229 -1.41572 -1.16835 0.0131277 -0.0040094 0.0206326 
29 2 -1.84862 0.323991 -4.72333 0.0326157 -0.0100601 -0.00827605 
30 2 3.47525 1.49086 0.6608 0.0400489 -0.0192639 -0.040718 
31 2 -1.09511 -0.168142 -2.44261 0.0676528 0.0588249 0.0437268 
32 2 -2.30864 -1.14576 -0.612911 -0.0073221 0.0199242 -0.0193813 
33 2 -4.47771 1.33255 3.74936 -0.0242207 0.0087165 0.0267593 
34 2 3.4912 0.1918 3.70967 -0.0332542 -0.055761 0.0124055 
35 2 0.357815 1.40684 -3.71433 0.0137422 0.0103729 0.0154545 
36 2 -2.19932 4.45538 -3.49414 -0.0262568 0.0112712 0.0704885 
37 2 3.59114 2.18583 -3.38442 -0.0509857 -0.0217321 -0.0010595 
38 2 4.27151 3.62942 2.98201 0.00642705 0.017857 0.0215126 
39 2 0.999059 -1.17255 -4.47599 -0.0207907 0.0114967 0.0152782 
40 2 5.4872 4.92652 -4.32553 0.0743967 0.0366773 0.00147434 
41 2 3.33028 -2.45143 3.81907 -0.0174514 0.0163078 0.0053837 
42 2 2.31345 0.256125 -1.77127 0.0184607 -0.00586196 0.0233879 
43 2 -3.89225 -3.97451 1.88821 -0.0287684 0.0128798 -0.0544938 
44 2 -0.957023 -2.53708 0.796217 -0.00186077 -0.0395824 -0.000752232 
45 2 2.28483 -2.30267 0.830532 -0.0414572 0.00895767 -0.00523028 
46 2 3.89978 -1.2946 -1.16973 -0.0255748 0.00091235 -0.00812145 
47 2 -5.15912 1.0967 -1.20144 0.0173556 0.0166511 -0.0124974 
48 2 4.95944 -1.4232 -3.49334 -0.0148541 0.0149024 0.0476481 
49 2 -4.10909 -1.19058 4.33833 -0.0175656 -0.00833106 -0.0296556 
50 2 -2.07026 -2.29246 -3.94187 -0.0120729 -0.00222728 0.0211538 
ITEM: TIMESTEP
300
ITEM: NUMBER OF ATOMS
50
ITEM: BOX BOUNDS pp pp pp
-5 5
-5 5
-5 5
ITEM: ATOMS id type x y z vx vy vz 
1 1 0.860626 -2.68719 0.186515 -0.0100759 0.00512172 0.0197068 
2 1 -4.01455 1.15955 -4.68831 -0.00170854 0.0124974 -0.0668637 
3 1 -1.94752 -1.48598 1.02639 -0.0168902 0.0128032 -0.0180019 
4 1 4.81951 1.48467 -2.71754 -0.0381958 -0.00979049 -0.0565448 
5 1 -3.30184 -1.12022 -4.70886 -0.0427205 -0.0263403 0.00674907 
6 1 -3.3416 3.68346 -3.5002 0.0446469 0.0121856 -0.031991 
7 1 2.27462 -1.1521 4.44847 0.0213131 -0.0383529 0.0164639 
8 1 3.49575 -0.92909 -2.9473 0.0225165 0.0423164 0.0527156 
9 1 3.65109 -1.74615 0.0800912 -0.00282035 0.0340536 -0.0078653 
10 1 2.58094 -2.64149 2.08082 0.0300879 -0.0328664 0.0459479 
11 1 0.843802 -0.526443 -2.14072 -0.0349492 -0.0244593 0.010658 
12 1 -2.05671 -3.84939 -3.40245 -0.00477201 0.00640221 0.0162649 
13 1 -0.793662 -0.91923 -3.6813 -0.00380701 0.0117193 -0.0130625 
14 1 -4.78117 5.13523 2.3601 -0.0280338 0.0148997 -0.0110722 
15 1 4.37159 2.26868 2.39148 0.0501695 0.0210024 -0.00441399 
16 1 -3.59114 -0.0322304 -1.62137 -0.0303154 -0.01559 -0.0176696 
17 1 -1.83228 -3.93291 0.178081 -0.0161782 -0.0418096 -0.0351417 
18 1 5.04097 -3.14688 4.71582 0.020935 -0.00381929 0.0195401 
19 1 -5.51289 -0.28828 3.44186 -0.0501743 -0.0316288 0.0650878 
20 1 -1.30139 -1.68714 -1.3024 0.00840859 -0.00488976 -0.00339149 
21 1 4.79219 3.44078 5.00066 0.00319915 -0.00574447 0.029867 
22 1 3.1489 0.944093 -0.890829 -0.0268215 0.00465228 0.0442941 
23 1 -1.50011 2.24565 -4.71784 -0.00390221 -0.00029552 0.0215563 
24 1 2.03204 1.57023 -4.16251 -0.0165804 -0.0266835 0.0370333 
25 1 5.30485 1.57266 0.0344894 0.0493231 -0.0378849 0.0050663 
26 2 -3.62852 2.12134 -3.69262 0.0203595 -0.00290659 -0.043877 
27 2 -1.35188 -3.45103 -1.46777 -0.0200255 0.0167538 0.00217491 
28 2 0.459374 -1.81187 -0.976428 -0.0327518 -0.0512939 0.00213001 
29 2 -1.86555 0.264523 -4.84943 -0.0369469 0.00182215 -0.00438194 
30 2 3.88642 1.43199 0.623025 0.0334867 0.00161248 0.0271183 
31 2 -0.580558 0.0447051 -2.01571 0.020036 -0.0146744 0.0315787 
32 2 -2.71164 -0.855554 -0.466694 -0.0504678 0.0253354 0.0344863 
33 2 -4.73601 1.55412 4.06155 -0.038402 0.0243266 0.0284871 
34 2 2.9144 -0.166283 3.76998 -0.0507974 0.00830505 -0.00714782 
35 2 0.667052 1.75808 -3.95533 0.0190824 0.0616702 -0.0577189 
36 2 -2.26148 4.60588 -2.76097 0.00631933 0.0105514 0.0635393 
37 2 3.23987 1.90417 -3.54405 0.0257907 -0.0277875 -0.0108173 
38 2 4.50838 3.85528 3.19758 0.0385065 0.0253258 0.0193884 
39 2 0.834698 -1.08051 -4.15026 -0.0044882 0.000594334 0.0365755 
40 2 -4.07549 5.12765 -4.55083 0.015048 0.00543954 -0.0440473 
41 2 3.06959 -2.48254 3.78013 -0.0266059 -0.0277498 -0.0182332 
42 2 2.08633 0.11208 -2.20052 0.0514085 0.0219206 -0.0566514 
43 2 -4.03549 -3.72404 1.25605 -0.00941397 0.0174261 -0.0579028 
44 2 -0.741545 -2.89057 0.972498 0.0171528 -0.0194691 0.0312624 
45 2 1.97258 -2.33951 0.757422 0.0233312 -0.00155141 -0.00543814 
46 2 3.67051 -1.38194 -1.18106 -0.0188148 0.00459402 -0.0148536 
47 2 5.42755 1.17864 -1.25306 0.0831465 -0.0195457 -0.0441584 
48 2 4.80758 -1.11731 -3.25981 0.0268272 0.0530879 -0.0184461 
49 2 -4.2233 -1.32668 3.91258 -0.0152484 -0.0181259 -0.0357297 
50 2 -2.07934 -2.20289 -3.72791 0.000812936 0.0268404 0.0177296 
ITEM: TIMESTEP
400
ITEM: NUMBER OF ATOMS
50
ITEM: BOX BOUNDS pp pp pp
-5 5
-5 5
-5 5
ITEM: ATOMS id type x y z vx vy vz 
1 1 0.44914 -2.7027 0.336121 -0.03695 -0.00270077 0.0214768 
2 1 -3.70629 1.08736 -5.36128 0.0464444 -0.00980473 -0.0480158 
3 1 -2.18705 -1.45064 0.871733 -0.029721 -0.0139053 -0.00900691 
4 1 4.84004 1.36989 -3.07823 0.0876215 -0.0294211 -0.00187001 
5 1 -3.48157 -1.34232 -4.53868 0.00276221 0.000949539 0.0288439 
6 1 -2.93056 3.98611 -3.62772 0.0209091 0.026989 -0.00984725 
7 1 2.08386 -1.67924 4.84775 -0.0520589 -0.0470316 0.0493112 
8 1 3.62568 -0.588303 -2.50686 0.0341556 0.0255925 -0.0162847 
9 1 3.54088 -1.5824 0.194604 -0.00497846 0.0030292 0.00954982 
10 1 2.78459 -2.98855 2.4403 0.00622545 -0.0352629 -0.0164304 
11 1 0.898801 -0.818942 -2.02738 0.0298874 -0.0327502 8.71804e-05 
12 1 -2.07777 -3.67315 -2.89513 0.00180088 0.0315095 0.0773484 
13 1 -0.959382 -0.690433 -4.05477 -0.0259532 0.0214675 -0.0404802 
14 1 -4.91289 -4.63819 2.15234 0.00756614 0.0288934 -0.0297652 
15 1 4.74577 2.47199 2.60669 0.0194578 0.0149249 0.0367961 
16 1 -3.67146 -0.573521 -1.83936 0.00731839 -0.0689755 -0.0293709 
17 1 -1.97106 -4.21986 -0.273831 -0.0197167 -0.0190669 -0.0416989 
18 1 -4.78384 -3.31383 4.83619 0.0134694 -0.0396 -0.00350122 
19 1 4.12014 -0.528704 4.04982 -0.0252374 -0.00635623 0.0482726 
20 1 -1.24139 -1.77316 -1.49896 -0.00637747 0.000334619 -0.0395536 
21 1 4.76592 3.4282 -5.08276 0.000256297 -0.00355369 -0.0352161 
22 1 2.7996 0.906626 -0.479038 -0.0257935 0.000640715 0.0382344 
23 1 -1.31803 1.79608 -4.3817 0.0334536 -0.0705612 0.0401462 
24 1 1.93486 1.12853 -3.73635 -0.00458228 -0.0363536 0.0346912 
25 1 -4.17634 1.19182 0.134826 0.0470437 -0.0475033 -0.00917144 
26 2 -3.46785 2.43923 -4.13518 0.0177949 0.0662314 -0.0592405 
27 2 -1.83161 -3.20871 -1.3322 -0.0756882 0.0263054 0.0132982 
28 2 0.261231 -2.09032 -1.1573 0.0192963 -0.0149838 -0.0145426 
29 2 -2.37252 0.371739 -4.80008 -0.042979 0.014968 0.00433464 
30 2 4.31137 1.46342 0.876492 0.0553106 0.00228646 0.0145156 
31 2 -0.768647 -0.200909 -1.89163 -0.0375907 -0.0261213 -0.00893134 
32 2 -3.07258 -0.740765 -0.106341 -0.0324464 0.00746724 0.0293744 
33 2 -5.31696 1.78321 4.00315 -0.0456369 0.0142565 -0.0308134 
34 2 2.59819 0.0169692 3.73399 -0.0206201 -0.00802033 0.0184017 
35 2 0.366668 2.46173 -4.63604 -0.0571527 0.0531064 -0.0616951 
36 2 -2.30211 4.63826 -2.43973 -0.00864154 0.0090889 0.00921279 
37 2 3.66803 1.9389 -3.86427 -0.00220839 0.0515425 -0.0746249 
38 2 4.88919 4.09975 3.20993 0.0291276 0.0223116 -0.0257267 
39 2 0.830626 -1.11599 -3.83579 0.00445523 0.00134954 0.0229003 
40 2 -4.04136 -4.83708 -4.90145 -0.00317453 0.0130148 -0.0111324 
41 2 2.97319 -2.76342 3.89186 0.00771415 -0.014934 0.0769699 
42 2 2.61197 0.52135 -2.53518 0.0139999 0.0554715 0.00038856 
43 2 -4.14798 -3.76214 0.866971 -0.0140327 -0.0243178 -0.0178164 
44 2 -0.85132 -2.99347 1.18809 -0.0305596 0.00148902 0.00458055 
45 2 2.71353 -2.35845 1.0506 0.0703901 -0.0128338 0.0507251 
46 2 3.60813 -1.23892 -1.26084 0.00751403 0.00269293 0.0497713 
47 2 -4.08489 1.12411 -1.8195 0.0130985 0.00184883 -0.0353617 
48 2 5.42919 -0.402905 -3.75776 0.0627335 0.0741422 -0.0565358 
49 2 -4.52629 -1.54566 3.90444 -0.0418959 -0.0281199 0.0368026 
50 2 -2.15326 -1.91462 -3.59908 -0.0158107 0.0202738 0.0106001 
ITEM: TIMESTEP
500
ITEM: NUMBER OF ATOMS
50
ITEM: BOX BOUNDS pp pp pp
-5 5
-5 5
-5 5
ITEM: ATOMS id type x y z vx vy vz 
1 1 0.147283 -2.70307 0.43529 -0.0237413 0.00231612 -0.00516508 
2 1 -3.5083 1.1811 4.36987 0.00267457 0.026291 -0.0153991 
3 1 -2.50094 -1.86841 0.790332 -0.0417517 -0.0624408 -0.0211892 
4 1 5.78311 1.42984 -3.41865 0.0928078 0.0489455 -0.0385261 
5 1 -3.47258 -1.14999 -4.4347 -0.0180212 0.0244762 -0.0178024 
6 1 -2.93013 4.19408 -3.87709 -0.0104784 0.0322269 -0.0311852 
7 1 1.54265 -2.05848 5.27554 -0.0341575 -0.0273245 0.0279218 
8 1 3.96134 -0.419234 -2.65298 0.0253054 0.0216845 0.0105324 
9 1 3.69832 -1.67871 0.390633 0.0337979 -0.0189855 0.0213358 
10 1 2.82674 -3.32709 2.77897 0.00327133 -0.0269329 0.0862468 
11 1 1.11201 -1.16561 -2.14859 0.0208847 -0.0310694 -0.0141896 
12 1 -2.203 -3.52004 -2.56328 -0.0349081 -0.00366722 -0.0207504 
13 1 -1.18863 -0.831707 -4.22205 -0.0121102 -0.0457951 0.00526415 
14 1 -4.6941 -4.4717 1.90342 0.01962 -0.00688157 0.000598648 
15 1 4.81048 2.63215 2.43826 0.000527749 0.0127312 -0.0781971 
16 1 -3.46109 -1.03355 -1.98578 0.0311509 -0.0259039 0.0129792 
17 1 -2.36188 -4.44613 -0.434088 -0.063826 -0.0162674 0.004477 
18 1 -4.82453 -3.61487 4.59893 -0.0296584 0.0035288 -0.0355694 
19 1 3.94988 -0.482221 4.39175 -0.0057168 0.00461205 0.0218749 
20 1 -1.22191 -1.64525 -1.83425 0.0123942 0.00586191 -0.00846262 
21 1 4.83054 3.31468 4.71309 0.0101462 -0.0159236 0.00243597 
22 1 2.80278 0.979467 -0.233389 0.0290092 0.00625815 -0.00124002 
23 1 -1.04746 1.49778 -4.07381 0.0172528 0.0186474 0.0164909 
24 1 1.97904 1.07296 -3.78663 0.0206299 0.0113131 -0.0250151 
25 1 -3.88745 0.653651 -0.122638 -0.00288946 -0.0307453 -0.0366892 
26 2 -3.3478 3.04869 -4.81352 -0.00391064 0.0230836 -0.0689059 
27 2 -2.58826 -2.6965 -1.09553 -0.060624 0.069282 0.0295432 
28 2 0.579603 -2.2845 -1.09577 0.0230691 -0.0169828 0.0189652 
29 2 -2.12674 0.399467 -4.82256 0.0754041 -0.00795117 -0.00510208 
30 2 4.93347 1.46396 0.913549 0.0620004 0.00232389 -0.0014532 
31 2 -1.09365 -0.286605 -2.20354 -0.022477 0.0247438 -0.0535924 
32 2 -3.44531 -0.60564 0.0422577 -0.0209519 -0.0142302 0.0128826 
33 2 4.73853 1.66763 3.70163 0.0541736 -0.0349758 -0.0268841 
34 2 2.42258 -0.35985 4.18969 -0.0175925 -0.0523275 0.0710931 
35 2 -0.428668 2.6359 -5.01102 -0.0926389 -0.0146027 -0.0109597 
36 2 -2.32481 4.95342 -2.34631 0.00166435 0.0480044 0.0108089 
37 2 3.70576 2.58731 -4.36089 0.00807072 0.0729102 -0.0220318 
38 2 5.02605 4.27738 2.75209 -0.00166378 0.0108699 -0.0495528 
39 2 0.932939 -0.9878 -3.72664 0.00869174 0.0201365 0.00511253 
40 2 -4.04166 -4.68595 -4.70551 0.00827993 0.00565514 0.0459342 
41 2 2.93647 -2.90988 4.66827 -0.0261808 -0.0242696 0.0664705 
42 2 2.64693 0.792013 -2.10194 -0.00754007 0.00693895 0.053324 
43 2 -4.19359 -4.04652 0.706758 0.0229716 -0.0170907 -0.0452661 
44 2 -1.28207 -2.82852 1.05995 -0.0510315 0.0279937 -0.0252085 
45 2 3.22249 -2.52852 1.49975 0.0405503 -0.0207637 0.0400502 
46 2 3.74162 -0.959382 -1.06 0.0181615 0.0445199 -0.00857189 
47 2 -4.03458 0.917049 -1.77004 0.00297764 -0.0397819 0.0236755 
48 2 -4.43831 0.149804 -4.09472 -0.0309219 0.0251164 -0.0252835 
49 2 -4.84921 -1.9075 4.51705 -0.0108551 -0.0376953 0.0761984 
50 2 -2.33843 -1.85711 -3.39969 -0.0218408 -0.00786263 0.0279766 
