ITEM: TIMESTEP
100
ITEM: NUMBER OF ATOMS
50
ITEM: BOX BOUNDS pp pp pp
-5 5
-5 5
-5 5
ITEM: ATOMS id type x y z vx vy vz 
1 1 4.38902 -4.45803 0.0821911 0.0395843 -0.0229202 0.0175441 
2 1 -3.79087 2.93262 1.15082 -0.00232877 0.0412229 -0.0133216 
3 1 1.32521 1.68147 3.3334 -0.0164845 -0.045434 0.0275524 
4 1 3.13869 0.683176 -1.32407 0.0549363 0.0290178 -0.0298993 
5 1 1.68992 2.95177 -1.45981 0.0465979 -0.021899 -0.0182943 
6 1 1.58426 1.70067 -3.85707 -0.0613595 -0.0149978 -0.0242558 
7 1 2.19424 4.00599 4.11979 0.027075 0.0570476 -0.0479968 
8 1 -0.927201 4.04078 -1.11736 -0.134883 -0.0319106 -0.0114235 
9 1 2.7908 -3.18711 3.49537 0.0252448 -0.0205216 -0.0239659 
10 1 -0.390833 3.23249 4.00367 0.0122718 -0.00374239 -0.00936579 
11 1 -0.262419 2.07537 0.734823 0.0124607 0.00445087 0.00711563 
12 1 3.12029 3.74212 1.52851 -0.0337577 -0.0715054 -0.0371067 
13 1 4.44457 -0.619448 0.654984 -0.013183 -0.00294286 -0.0202133 
14 1 0.366332 -0.180077 -0.940983 0.0437955 -0.0374835 0.0467324 
15 1 -1.25359 -2.22244 -1.98838 0.0159976 0.0160308 0.0465945 
16 1 4.70819 2.904 3.68595 0.0308846 -0.00662561 0.0553332 
17 1 -2.85044 1.33674 -1.62842 0.0199931 -0.00751312 0.00846767 
18 1 4.80375 3.349 -1.97592 0.0345796 0.0357151 0.00625757 
19 1 2.74874 -4.42992 -2.20736 -0.000942272 -0.0795802 0.0445142 
20 1 -0.826859 1.1102 -3.2895 -0.031033 0.00419595 0.0788773 
21 1 1.42031 -2.42324 -4.13193 -0.0430348 -0.0492485 -0.0469833 
22 1 -2.29601 3.14814 2.67453 0.0237008 0.0762973 -0.0241718 
23 1 0.766159 3.8007 1.70463 -0.00695738 -0.0658434 -0.0143447 
24 1 -5.25704 0.509041 -3.60124 -0.0543294 0.00917817 -0.0424935 
25 1 0.254632 4.73613 -3.34477 -0.0854874 0.00323776 -0.0176146 
26 2 -2.16076 4.7552 -1.96192 0.000268655 -0.0185271 -0.0635304 
27 2 1.05883 0.864233 -0.246034 -0.0753511 0.0191957 -0.0369271 
28 2 -0.187543 1.78401 2.29412 0.0344398 0.0285186 0.0854552 
29 2 2.31642 4.78617 1.1863 0.0588529 0.0287428 -0.0381513 
30 2 0.655687 4.48978 -1.58729 0.0160052 0.000399046 0.0464867 
31 2 -0.130362 -3.16918 -2.89172 0.0030443 0.0209415 -0.0209434 
32 2 1.08827 1.28222 4.80012 0.0205839 0.0221888 0.0141944 
33 2 0.680276 2.93369 0.35865 -0.0889895 0.0462343 -0.0395833 
34 2 1.3186 0.613642 -2.81785 0.0806189 -0.0025371 -0.0177432 
35 2 -1.69547 -0.927457 -3.16435 -0.0109049 -0.0231854 -0.0339434 
36 2 3.92524 4.7559 -1.32144 -0.0504193 -0.011538 -0.00943615 
37 2 3.3751 2.33334 -1.42392 0.0155503 0.0615361 0.0204061 
38 2 1.59221 3.21682 -3.43678 0.012627 -0.0191624 -0.00198257 
39 2 2.223 -3.05563 -3.01828 0.0947097 0.0418863 0.040307 
40 2 5.10378 -5.10165 1.43585 0.0263496 -0.0214604 0.0588351 
41 2 -1.19421 3.93341 2.65354 0.057837 0.00383096 -0.0908222 
42 2 -1.30838 2.55875 -3.14086 -0.0125065 -0.040658 0.0626101 
43 2 3.04295 -4.3009 4.34284 -0.0880558 -0.0255041 0.0163035 
44 2 -3.48923 0.968305 -0.148019 -0.0110219 0.10873 0.049375 
45 2 3.28408 -0.638884 -0.781691 0.0250709 0.00500578 -0.0291687 
46 2 -3.79202 1.14689 -3.62719 0.0230923 0.000836365 -0.017148 
47 2 3.31201 2.8957 3.90426 -0.0237877 -0.0177822 -0.0101656 
48 2 0.703558 4.42212 3.72521 -0.00307511 0.0235526 0.00396107 
49 2 -2.4446 3.01452 0.126386 0.013325 0.0408806 -0.00216005 
50 2 -4.67177 2.50686 2.17969 -0.0216047 -0.0663511 0.0562332 
ITEM: TIMESTEP
200
ITEM: NUMBER OF ATOMS
50
ITEM: BOX BOUNDS pp pp pp
-5 5
-5 5
-5 5
ITEM: ATOMS id type x y z vx vy vz 
1 1 4.59603 -4.83557 0.409034 -0.0140844 -0.0367707 0.0463189 
2 1 -3.9828 3.12487 0.637135 -0.0215384 -0.00503116 -0.0490372 
3 1 1.3169 1.08134 3.346 0.0237362 -0.0588571 -0.0227183 
4 1 3.36998 1.04016 -1.63397 0.00505674 0.0185601 -0.0335721 
5 1 1.8615 2.94347 -1.58299 -0.0253343 0.0182073 -0.00985036 
6 1 1.2312 1.74443 -3.77109 -0.00675484 0.0166784 0.0315077 
7 1 2.40286 4.37113 3.87393 -0.0033522 -0.030772 -0.0107464 
8 1 -2.11957 3.65673 -1.19256 -0.0763245 -0.0323623 -0.0205808 
9 1 3.06953 -3.51619 3.1712 0.025376 -0.0414221 -0.0327709 
10 1 -0.109719 3.28561 3.8883 0.043663 -0.00101519 -0.00580388 
11 1 -0.454312 1.68212 0.713285 -0.030877 -0.0295798 -0.0227108 
12 1 3.19624 3.03911 1.12114 0.0267472 -0.0497913 -0.0385571 
13 1 4.30347 -0.593307 0.296983 0.00546364 0.00235224 -0.0157513 
14 1 1.07774 -0.592219 -0.723999 0.095644 -0.0208285 0.00337681 
15 1 -1.07217 -2.19846 -2.14618 0.0161942 -0.00782836 -0.0733372 
16 1 4.92472 2.74672 4.00912 -0.00469364 -0.0217023 0.0083253 
17 1 -2.90684 1.4244 -1.38266 -0.033173 0.0201179 0.0362272 
18 1 4.83308 3.69388 -1.77004 -0.0252594 0.0252167 0.0221648 
19 1 2.32974 -4.94434 -1.91653 -0.0721975 -0.013308 0.0171646 
20 1 -1.00756 0.733218 -2.7736 -0.00629278 -0.0811049 0.0252265 
21 1 0.99423 -3.06172 -4.10879 -0.0245682 -0.0758473 0.029717 
22 1 -2.17651 3.83603 2.26017 0.015913 0.075095 -0.0725057 
23 1 0.521828 3.74361 1.60365 -0.00349537 0.035604 -0.0231602 
24 1 4.53449 0.682765 -4.06962 0.00896268 0.0218263 -0.0443022 
25 1 -0.526355 4.74726 -3.13617 -0.0741841 -0.00172642 0.0625263 
26 2 -2.11609 4.72352 -2.60435 0.0138145 0.00501183 -0.0644755 
27 2 0.247453 1.08646 -0.455864 -0.0807757 -0.00616519 -0.012141 
28 2 0.230371 2.17441 3.01773 0.0240035 0.0411334 0.012269 
29 2 2.90087 4.95903 1.01893 0.069634 -0.00974561 0.00797555 
30 2 0.917494 4.63617 -1.65877 0.0530639 0.0408001 -0.0724939 
31 2 -0.0868738 -3.01433 -3.18028 0.00972602 0.00145353 -0.0280404 
32 2 1.03787 1.4048 4.78027 -0.0228597 -0.0115491 0.031012 
33 2 0.0388844 3.48731 0.110534 -0.0371554 0.0067762 -0.00318175 
34 2 2.1187 0.540269 -2.72329 0.0854265 0.005213 0.0278148 
35 2 -1.60316 -0.970777 -3.06612 0.0280767 0.0203769 0.0528976 
36 2 3.93269 4.79103 -1.30054 0.0526514 0.0200028 0.0167377 
37 2 3.6214 2.56492 -1.2757 0.0248928 -0.016646 0.0163968 
38 2 1.65867 3.20917 -3.35483 0.00469954 0.00646711 0.0278368 
39 2 3.12518 -2.84202 -2.74873 0.0685629 0.000922875 0.015405 
40 2 -4.64502 4.55947 1.71336 0.0332623 -0.0519159 -0.00617425 
41 2 -0.693161 4.04937 1.89192 -0.0128067 0.028688 -0.0169942 
42 2 -1.38869 2.17669 -2.29923 -0.0203908 -0.0352749 0.109291 
43 2 2.31748 -4.16778 4.55618 -0.0375322 0.0908443 0.0266954 
44 2 -3.77925 1.84702 0.0214504 -0.0418121 0.0702805 -0.0228077 
45 2 3.74856 -0.457885 -0.831542 0.0362339 0.0487597 -0.0150997 
46 2 -3.98263 1.13643 -3.55965 -0.0609902 -0.000940198 0.0237333 
47 2 2.94137 2.82263 3.64072 -0.023664 0.0104844 -0.0426695 
48 2 0.777842 4.35598 3.85113 0.00339972 -0.0160927 0.0132649 
49 2 -2.29563 3.60389 0.259428 -0.0246634 0.0650106 0.0374571 
50 2 -4.7365 1.97716 2.81697 0.0105756 -0.039606 0.0581404 
ITEM: TIMESTEP
300
ITEM: NUMBER OF ATOMS
50
ITEM: BOX BOUNDS pp pp pp
-5 5
-5 5
-5 5
ITEM: ATOMS id type x y z vx vy vz 
1 1 4.48598 -4.90618 0.74221 0.0267308 0.0220521 0.00375185 
2 1 -4.06338 3.22906 0.660092 0.0117437 -0.0355438 -0.00698174 
3 1 1.44955 0.921377 3.36638 -0.00343593 0.023341 0.0218694 
4 1 3.75922 1.17137 -1.85804 0.0858901 0.035664 -0.0143954 
5 1 1.30124 3.10351 -1.5587 -0.0767691 0.0216005 0.0265766 
6 1 1.39209 1.78571 -3.58165 0.0378223 -0.0244891 0.00160936 
7 1 2.20682 3.91889 4.011 -0.00830182 -0.0517477 0.0226102 
8 1 -2.40675 3.56214 -1.39903 -0.010288 0.00262749 -0.0116359 
9 1 3.16927 -3.90755 2.94707 -0.0111269 -0.0379902 -0.00967714 
10 1 0.0680199 3.06517 3.98739 -0.00589338 -0.0287028 -0.00269762 
11 1 -0.776764 1.82703 0.371294 -0.0187449 0.0372497 -0.0569877 
12 1 3.47916 2.69621 0.832061 0.0233159 -0.0234495 -0.022128 
13 1 4.60743 -0.571868 0.379919 0.0384824 0.0137667 -0.00513081 
14 1 2.07359 -0.503532 -0.916874 0.0992905 0.0335686 -0.0463893 
15 1 -1.06791 -2.27128 -2.95751 -0.02398 0.00259138 -0.072162 
16 1 4.63798 2.69714 3.87531 -0.0434153 0.00895515 -0.0496982 
17 1 -3.29515 1.29028 -1.22202 -0.0437662 -0.0661249 -0.0178315 
18 1 4.49981 3.59887 -1.7263 -0.032657 -0.0322414 0.000277442 
19 1 2.6197 -4.42402 -1.80823 0.0864057 0.0951193 0.00456289 
20 1 -0.965573 0.498718 -2.35339 0.0254288 0.0664744 0.0788708 
21 1 1.30262 -3.95043 -4.15448 0.0510212 -0.0912767 -0.0254578 
22 1 -2.29949 4.66027 1.38317 -0.0131837 0.0990143 -0.0526413 
23 1 0.627214 4.12491 1.26883 -0.0071411 0.0323597 -0.0223957 
24 1 4.6129 0.771478 -4.42213 -0.00118595 -0.0101219 -0.0322794 
25 1 -0.647656 4.79972 -2.41449 0.0383129 0.0240503 0.0618998 
26 2 -2.27373 4.621 -3.00114 -0.0356883 -0.0307548 -0.00696939 
27 2 -0.146861 0.413209 -0.612134 0.00229407 -0.101411 -0.0110928 
28 2 0.470228 2.11512 2.42015 0.0307434 -0.0343344 -0.0829897 
29 2 3.20911 4.62311 1.43816 -0.034857 -0.0468966 0.0757822 
30 2 0.696313 5.01941 -2.36804 -0.041566 0.0399515 -0.05053 
31 2 -0.0739139 -3.22286 -3.35126 0.0203896 -0.0485908 -0.0354469 
32 2 0.803941 1.07524 5.15857 -0.0231731 -0.0316144 0.0184297 
33 2 0.137656 3.20655 -0.0694725 0.0396068 -0.0387451 -0.0241187 
34 2 2.49679 0.734564 -2.74023 -0.0277379 0.0210732 -0.0443073 
35 2 -1.39376 -0.96494 -2.40883 -0.003408 -0.0527933 0.0612952 
36 2 4.41502 5.13851 -0.953963 0.0371641 0.0257866 0.0491016 
37 2 3.62827 2.5457 -0.943894 -0.0368467 0.0321483 0.0556958 
38 2 1.83385 3.09632 -3.02182 0.0329495 -0.0235524 0.0287065 
39 2 3.55617 -2.94817 -2.59544 0.0140813 -0.0252198 0.0203006 
40 2 -4.39386 4.03799 1.63073 -0.0200487 -0.0153326 0.0478189 
41 2 -0.889078 4.61461 2.41188 -0.00350802 0.0622892 0.0630696 
42 2 -1.99777 1.81149 -1.31369 -0.0786157 -0.0159233 0.0776357 
43 2 2.16086 -3.16824 4.60864 0.00207467 0.0900826 -0.0143246 
44 2 -4.22973 2.17318 -0.612387 -0.0594757 0.0408972 -0.0566425 
45 2 3.91357 0.0267384 -0.911609 0.0146701 0.00499387 0.0552387 
46 2 -4.69603 1.23455 -3.1853 -0.070249 0.0238447 0.054204 
47 2 3.02424 2.91515 3.13268 0.0374949 -0.00526993 -0.0444729 
48 2 0.944634 4.57815 4.043 0.0128748 0.0312806 0.0366277 
49 2 -2.9305 4.16692 0.228897 -0.0512614 0.0410113 -0.101169 
50 2 -4.53982 1.4577 3.30609 0.0175372 -0.059667 0.0546188 
ITEM: TIMESTEP
400
ITEM: NUMBER OF ATOMS
50
ITEM: BOX BOUNDS pp pp pp
-5 5
-5 5
-5 5
ITEM: ATOMS id type x y z vx vy vz 
1 1 4.75747 -4.86892 0.866705 0.026841 -0.0218262 0.0387538 
2 1 -3.81139 2.76093 0.421085 0.0367681 -0.0314365 -0.0307941 
3 1 1.32295 1.16657 3.49725 -0.0145227 0.00906345 -0.00791298 
4 1 4.19122 1.5213 -1.68591 -0.0385963 0.036303 0.0708217 
5 1 1.03045 3.4135 -1.5508 0.0562421 0.0451479 -0.0571174 
6 1 1.74201 1.53235 -3.73034 0.0171598 -0.00362703 -0.0257497 
7 1 2.32946 3.42141 4.01931 0.0220954 -0.0393309 -0.0171648 
8 1 -2.79439 3.48886 -1.65409 -0.0654857 -0.0286344 -0.0392785 
9 1 2.8199 -4.3336 2.93018 -0.054352 -0.0324389 0.0120344 
10 1 -0.274798 3.04312 3.7533 -0.0570845 0.0276107 -0.0324823 
11 1 -0.809584 2.08174 -0.0494328 0.00341126 0.0335117 0.0174891 
12 1 3.46083 2.63357 0.905224 -0.035024 0.00733588 0.0476516 
13 1 5.10258 -0.470972 0.470983 0.0549242 -0.00390775 0.0382316 
14 1 2.87573 -0.0576982 -1.6175 0.0444424 0.0322703 -0.0792167 
15 1 -1.14794 -2.29383 -3.59228 0.0110246 0.00196663 -0.0438359 
16 1 4.69304 2.70771 3.01326 0.0792 -0.00409365 -0.09551 
17 1 -3.88226 0.64384 -1.56487 -0.0277768 -0.0419089 -0.0494827 
18 1 4.276 3.55368 -1.54114 -0.0330022 0.0526787 0.0326676 
19 1 3.43958 -3.8071 -1.4253 0.0641736 -0.00419153 0.0941914 
20 1 -0.742636 0.734842 -1.41931 0.0127752 -0.0473788 0.0642855 
21 1 1.4564 -4.59576 -4.36278 -0.0221894 -0.0243874 0.0128394 
22 1 -2.34436 5.56981 1.07358 0.00119021 0.0712653 -0.0221456 
23 1 0.556538 4.22471 1.24799 0.00303323 -0.0130873 0.0118045 
24 1 4.72814 0.689651 -4.66099 0.0223952 0.00304355 -0.0138397 
25 1 -0.769171 5.28728 -2.17371 -0.0240699 0.0670953 -0.0165639 
26 2 -2.30357 4.18108 -2.73149 0.0405317 -0.0424927 0.0258937 
27 2 0.109582 -0.190167 -0.702267 0.0480755 -0.0140861 -0.000684116 
28 2 0.760664 1.81872 2.01977 0.0211085 -0.0178835 0.0105118 
29 2 2.70683 4.66338 2.00695 -0.0648377 0.0431493 0.0365237 
30 2 1.10551 -4.96314 -2.45566 0.0587163 -0.0249407 0.0306296 
31 2 -0.112458 -3.36996 -3.99589 -0.0361613 0.0115126 -0.0774274 
32 2 0.645707 1.10276 -5.03987 0.0011447 0.0417827 -0.0510905 
33 2 0.325741 3.03319 -0.245199 -0.0274232 0.00520092 0.00809233 
34 2 2.49344 0.499915 -2.80355 0.0341618 -0.0741969 0.0332496 
35 2 -1.59989 -1.36362 -2.09261 -0.040175 -0.039955 -0.0099485 
36 2 4.47454 -4.78051 -0.573909 -0.0318405 0.00407223 0.0130726 
37 2 2.91465 2.94645 -0.425509 -0.0788703 0.0402035 0.0289798 
38 2 2.09599 2.97829 -2.75879 0.0181393 -0.0173303 0.0136918 
39 2 3.67565 -2.87312 -2.69814 0.0296793 0.067992 -0.0623976 
40 2 -4.66687 3.95717 2.16978 -0.0226893 -0.0201033 0.0239345 
41 2 -1.06154 5.04445 2.50566 -0.0226487 0.0211922 -0.0422585 
42 2 -2.29574 1.78984 -0.626942 -0.00598386 -0.00269899 0.0592906 
43 2 2.33384 -2.58806 4.31888 0.0303833 0.0249419 -0.0468792 
44 2 -4.76691 2.54074 -1.01749 -0.0346958 0.0100851 -0.0183276 
45 2 3.91446 0.0122178 -0.345183 0.000691784 0.0149634 0.0323443 
46 2 -5.1613 1.38497 -3.09901 0.00375293 -0.00751339 -0.0636927 
47 2 3.12991 2.49351 3.11717 -0.0386631 -0.0789975 0.0287699 
48 2 1.27073 4.50548 4.59003 0.0562101 -0.0603436 0.0410719 
49 2 -3.0432 4.61588 -0.651415 0.016253 0.0536401 -0.016434 
50 2 -4.65598 1.00155 4.10574 -0.0384324 -0.0292372 0.0934075 
ITEM: TIMESTEP
500
ITEM: NUMBER OF ATOMS
50
ITEM: BOX BOUNDS pp pp pp
-5 5
-5 5
-5 5
ITEM: ATOMS id type x y z vx vy vz 
1 1 4.96698 -5.15006 1.2432 0.00637667 -0.0024459 0.00189338 
2 1 -3.44975 2.51998 0.0967689 0.00398277 -0.00839031 -0.0213202 
3 1 1.35778 1.07312 3.20162 0.0231178 -0.0262094 -0.0251424 
4 1 3.55394 1.99073 -1.11639 -0.0699385 0.0423078 0.0496771 
5 1 1.77544 3.71294 -1.86762 0.0537497 -0.00500654 0.00379598 
6 1 1.89757 1.51074 -3.86855 0.00951547 -0.00265665 -0.014735 
7 1 2.58211 3.07705 3.83823 0.0293232 -0.0420959 -0.0176038 
8 1 -3.44215 3.33077 -2.02714 -0.0455408 0.0104316 -0.0524818 
9 1 2.21406 -4.03945 3.4983 -0.0666084 0.054434 0.0633783 
10 1 -0.779447 3.43386 3.46786 -0.033235 0.0416788 -0.0239618 
11 1 -0.932778 2.45346 0.51275 -0.0214037 0.0252447 0.058366 
12 1 2.62362 2.77538 1.39961 -0.111288 0.0183512 0.0460757 
13 1 -4.6307 -0.485858 0.882062 -0.00175505 0.0118372 0.0319849 
14 1 3.27689 -0.609728 -1.56585 0.0267933 -0.0940121 0.0198459 
15 1 -1.07221 -2.06671 -3.82595 -0.000702006 0.0358765 -0.0121464 
16 1 5.42527 2.29187 2.65733 0.0599184 -0.0760356 0.0191355 
17 1 -3.95803 0.380683 -2.27918 -0.00824809 -0.0118179 -0.0789464 
18 1 3.75437 4.2772 -1.18953 -0.0585053 0.0345231 0.0263715 
19 1 3.88892 -3.35347 -0.956794 0.0299202 0.0948105 0.00998992 
20 1 -0.824394 -0.148166 -1.14682 -0.0120224 -0.107532 0.0159231 
21 1 1.06875 -4.62167 -3.91896 -0.0439087 -0.00542519 0.048484 
22 1 -2.17284 -4.05347 0.832381 0.0331453 -0.00141068 -0.029527 
23 1 0.766228 4.03387 1.27406 0.0325026 -0.00794194 -0.017073 
24 1 4.53493 0.550316 -4.28861 -0.0541085 -0.0326577 0.00595649 
25 1 -1.04434 -4.32085 -2.46722 -0.0371881 -0.00140373 -0.0278348 
26 2 -1.55476 3.91508 -2.70937 0.0739221 -0.0105942 0.00181104 
27 2 0.7652 -0.226632 -0.617264 0.0640374 0.00187868 0.00573212 
28 2 0.700213 1.96562 2.17188 -0.0392898 0.0635011 -0.0209785 
29 2 1.9235 4.66581 2.03339 -0.0839559 -0.0257598 0.00671106 
30 2 1.37787 -4.81971 -2.2315 0.00804209 0.0587224 -0.00733226 
31 2 -0.463845 -3.42994 -4.55489 -0.0253295 -0.0224726 -0.0235441 
32 2 0.792221 1.73503 4.5988 0.0174649 0.0640512 -0.00954301 
33 2 0.0233925 3.49495 -0.203971 -0.0264193 0.0697753 0.0145673 
34 2 2.49893 0.155357 -3.30024 -0.0036909 -0.0242829 -0.0725644 
35 2 -1.97835 -1.75159 -2.48194 -0.0214554 -0.0320476 -0.0574168 
36 2 4.20268 -4.87731 -0.225451 -0.00486949 0.0151723 0.0726773 
37 2 2.53768 3.27669 -0.183463 0.00367963 0.0173995 0.0133446 
38 2 2.42069 2.49105 -2.83254 0.0474671 -0.0496269 0.000640926 
39 2 3.95972 -2.3107 -2.93112 0.0290042 0.0505645 0.0213564 
40 2 -4.87388 3.79052 1.98153 -0.0142393 -0.0511517 -0.020151 
41 2 -1.23714 -4.96365 1.76871 -0.0098118 -0.0209433 -0.0846201 
42 2 -2.3591 1.7358 -0.111026 0.0149848 -0.019138 0.0451899 
43 2 2.65538 -2.68291 3.65423 0.0295371 -0.0397929 -0.0796799 
44 2 -4.78069 2.63617 -0.965981 0.0226351 0.0283299 0.0131896 
45 2 4.23175 0.288654 -0.28111 0.0533029 0.0250099 -0.0146939 
46 2 5.05815 1.23713 -3.05309 0.0519074 -0.0115054 0.0901882 
47 2 2.9463 1.66383 3.24494 -0.00200029 -0.0717419 -0.0135091 
48 2 1.79068 3.87501 4.78408 0.0378254 -0.0137444 0.0261454 
49 2 -2.8279 5.09244 -0.267904 0.0169814 0.0416426 0.0650236 
50 2 -4.69338 0.968775 4.06922 0.0163777 0.0123007 -0.0526494 
