ITEM: TIMESTEP
100
ITEM: NUMBER OF ATOMS
50
ITEM: BOX BOUNDS pp pp pp
-5 5
-5 5
-5 5
ITEM: ATOMS id type x y z vx vy vz 
1 1 -2.31312 4.87261 0.596296 0.0588195 -0.00155238 0.0620802 
2 1 -2.80584 -1.09028 -4.07458 0.0674996 0.0160493 -0.00525626 
3 1 2.9557 1.45634 1.87671 -0.00796078 0.0160569 -0.0129957 
4 1 4.32366 1.72412 4.39039 -0.0123706 -0.0220665 -0.0104022 
5 1 -1.67138 1.04544 3.0011 -0.0148583 -0.0308456 -0.0146572 
6 1 5.6805 3.97052 3.28392 0.0635323 -0.0211509 -0.0291051 
7 1 -1.94764 5.21409 -2.23978 0.0140662 0.0473043 0.00181551 
8 1 2.73824 -0.88396 1.80983 0.00223338 0.0480423 0.0248149 
9 1 2.57281 -3.90895 3.65238 0.00330452 0.0649516 0.0189943 
10 1 -3.56424 0.693014 3.93218 0.0348251 -0.0693295 0.00983168 
11 1 4.62413 4.03564 -2.33083 -0.00299059 -0.0327359 -0.029794 
12 1 -4.88428 -0.154836 -3.28123 -0.0422462 0.0208831 -0.0832401 
13 1 -4.51724 -2.87076 -5.46553 -0.0135654 -0.00730905 -0.062524 
14 1 -0.403863 -2.08861 -1.77073 0.0706923 -0.00763161 -0.0411948 
15 1 -2.78262 -1.61819 -1.34242 -0.00786688 -0.0558247 -0.0156566 
16 1 1.90978 2.80264 3.76543 0.0156792 -0.0106295 0.042745 
17 1 -0.650374 0.672345 -3.76684 0.0134959 0.0589314 0.0181981 
18 1 4.94898 -0.211313 -0.139728 0.00350632 0.0447316 -0.0371319 
19 1 -3.04244 3.39388 -4.61867 0.032948 -0.136073 -0.0477519 
20 1 2.60029 -0.409689 -1.24433 0.0383461 0.00359444 -0.0238658 
21 1 4.17053 4.43897 0.153588 -0.0252175 0.0359437 0.0294131 
22 1 -1.05442 -1.7593 2.49435 -0.0289887 -0.0338047 0.00167818 
23 1 -0.84705 1.93134 0.906873 -0.0227358 0.0429149 0.0370572 
24 1 -3.00189 -0.0323948 0.212802 -0.038322 -0.0530076 0.0192755 
25 1 0.521078 0.374936 0.883689 0.0419657 0.046392 0.0202891 
26 2 -1.99128 -4.03347 -0.553533 -0.00562133 0.0407553 0.0274001 
27 2 -3.07984 -4.70176 -3.38124 0.00487921 -0.0455147 0.012867 
28 2 3.8221 2.70282 -3.65348 0.0210684 -0.0959159 0.054534 
29 2 3.2079 -4.12118 -4.82312 0.00765569 -0.0613342 -0.0282789 
30 2 -4.10358 -1.95726 -4.11215 0.000509759 -0.00848132 -0.0198774 
31 2 3.95479 0.0698344 1.09929 -0.00778747 -0.0423289 -0.0154036 
32 2 -1.9525 0.0745863 -4.74766 0.0146351 0.0697194 -0.026579 
33 2 -5.09305 0.494909 -5.18765 -0.0917066 0.0289954 -0.0193523 
34 2 -4.03255 5.46646 3.24147 -0.0399482 0.0713387 0.0326804 
35 2 0.733945 -1.1307 0.398645 -0.0892488 -0.0220037 0.00184701 
36 2 -4.37469 2.73046 4.15786 -0.0164668 0.00191648 -0.039329 
37 2 1.91609 0.900367 2.38253 -0.0278468 -0.00495263 0.0135742 
38 2 4.2842 3.31064 -0.883127 0.00649141 0.00342893 -0.00860701 
39 2 3.75507 0.582496 -2.32699 -0.0328556 0.0121916 0.00293682 
40 2 3.64611 -3.81577 3.26582 0.0322573 0.0250283 0.00743828 
41 2 3.30419 3.10146 3.6216 -0.00945411 0.045247 -0.0395286 
42 2 -1.73296 -1.06067 -2.13506 0.0497427 -0.00130749 0.0751119 
43 2 -3.8381 -0.414255 -0.903401 0.0025007 -0.0564267 0.0575457 
44 2 1.63482 -1.50802 -2.1131 -0.0485919 0.0725752 0.052612 
45 2 0.515908 2.10231 0.687639 -0.07391 0.0195828 -0.0370509 
46 2 -2.23972 3.33905 0.597142 -0.00333086 -0.014811 0.0146135 
47 2 -1.60169 0.139479 0.287533 0.0417649 0.067978 0.0156269 
48 2 -0.938312 0.167457 2.22368 -0.0194961 -0.00332102 -0.013489 
49 2 -1.38602 3.01517 3.81062 0.00594635 -0.0384162 -0.0429307 
50 2 -3.47459 -0.563978 2.10326 0.0350218 -0.0277777 0.0490215 
ITEM: TIMESTEP
200
ITEM: NUMBER OF ATOMS
50
ITEM: BOX BOUNDS pp pp pp
-5 5
-5 5
-5 5
ITEM: ATOMS id type x y z vx vy vz 
1 1 -1.74301 4.87962 1.00998 0.0481482 0.00793378 0.0123605 
2 1 -2.13156 -1.06086 -4.07661 0.0507065 -0.00708554 0.00416163 
3 1 3.16741 1.90498 1.59587 0.0185518 0.0592591 -0.0201469 
4 1 4.14734 2.20092 4.41023 0.0140033 0.0760969 0.0076816 
5 1 -1.60071 1.05705 3.10043 0.0313974 -0.000320621 0.0277996 
6 1 -3.90751 4.09085 3.00185 0.0283519 0.032136 -0.0138012 
7 1 -2.0584 -4.29802 -2.12036 -0.0311772 0.0322015 0.0200739 
8 1 2.744 -0.537821 2.12643 -0.00111331 0.0174259 0.0398236 
9 1 2.53205 -3.51548 4.22738 0.0317541 0.0141127 0.0650444 
10 1 -3.69208 -0.240279 4.04793 -0.052353 -0.112298 0.00520961 
11 1 4.47399 3.31876 -2.76206 -0.0172203 -0.0825831 -0.0275683 
12 1 -5.67243 0.185933 -4.00241 -0.0982207 0.0378659 -0.0205585 
13 1 -4.8454 -3.15737 3.89768 -0.0521204 -0.0174294 -0.0585394 
14 1 0.423213 -1.7893 -1.91427 0.0467233 0.0407299 0.0160216 
15 1 -2.89635 -2.18215 -1.40496 -0.00168802 -0.0371715 0.0165864 
16 1 1.88618 2.74878 4.15988 -0.0152376 0.00677533 0.0217777 
17 1 -0.678059 1.13633 -3.67894 -0.0138938 0.0386516 -0.000548162 
18 1 4.59095 0.332386 -0.47794 -0.035863 0.0434456 -0.040831 
19 1 -2.70496 2.12214 -5.26013 0.0342463 -0.113978 -0.0801433 
20 1 2.57251 -0.462351 -1.69643 -0.0693006 -0.0317048 -0.0351007 
21 1 3.94859 4.60834 0.418102 -0.0149927 0.00209111 0.0148009 
22 1 -1.37079 -1.61576 2.24375 -0.0220342 0.0535428 -0.0408351 
23 1 -1.48663 2.36077 1.04592 -0.0307139 -0.000779058 -0.0136051 
24 1 -2.66391 -0.365946 0.979637 0.0665835 -0.0196919 0.0850677 
25 1 0.542008 0.556829 1.09872 -0.050713 0.000930659 0.0172362 
26 2 -2.06896 -3.72125 -0.47907 -0.0127707 0.0178007 -0.0114045 
27 2 -2.8948 -5.34652 -3.11586 0.0320989 -0.0656628 0.0435515 
28 2 4.23584 2.17496 -3.39635 0.0546988 -0.0344841 -0.0210134 
29 2 3.01312 -4.67905 -4.77845 -0.0385975 -0.0431427 0.00660582 
30 2 -3.9201 -1.72936 -4.42324 0.044331 0.0527483 -0.0421645 
31 2 3.63963 -0.189119 0.82092 -0.0457159 0.00463018 -0.0357486 
32 2 -1.9767 0.784195 -4.97872 -0.0211269 0.0562611 -0.00186657 
33 2 4.42014 0.268703 4.64397 -0.0245251 -0.0277668 -0.0527176 
34 2 -3.82496 -4.14649 3.61039 0.0881654 -0.0243892 0.0289425 
35 2 0.14747 -1.36251 0.649988 -0.0394185 -0.0287859 0.0514963 
36 2 -4.07619 2.56421 3.88507 0.0477746 -0.0248008 -0.0173742 
37 2 1.71228 0.674931 2.4927 0.0168393 -0.0182524 -0.0103987 
38 2 4.38735 3.75981 -0.836699 0.00652183 0.0716404 0.0136666 
39 2 3.74131 0.127976 -2.03658 0.0651225 -0.0594317 0.0298869 
40 2 4.09469 -3.07164 2.7049 -0.00224032 0.107858 -0.0609526 
41 2 3.13606 3.15114 3.02106 -0.0259944 -0.0428325 -0.0654686 
42 2 -1.20176 -1.40028 -1.87879 0.0285656 -0.0680559 -0.0256243 
43 2 -3.92149 -1.17016 -0.543719 -0.00599031 -0.0727856 0.0381314 
44 2 1.19992 -0.760435 -1.66426 -0.00510532 0.0936488 0.0279542 
45 2 0.263917 2.26276 0.348218 0.017969 0.02241 -0.0117508 
46 2 -2.31674 3.3869 0.882766 -0.0437825 0.0727439 0.0415826 
47 2 -1.52082 1.07633 0.18321 -0.0483398 0.0837217 -0.00496709 
48 2 -0.753369 -0.178662 2.50831 0.0273416 -0.054885 0.0524713 
49 2 -1.56452 2.37291 3.42345 -0.0347473 -0.0646441 -0.0389126 
50 2 -3.03223 -0.639726 2.72857 0.0551015 0.00629925 0.0641072 
ITEM: TIMESTEP
300
ITEM: NUMBER OF ATOMS
50
ITEM: BOX BOUNDS pp pp pp
-5 5
-5 5
-5 5
ITEM: ATOMS id type x y z vx vy vz 
1 1 -1.43421 5.16809 0.895565 0.00486246 0.0508228 -0.0285831 
2 1 -1.91047 -1.16485 -4.0467 -0.000275281 -0.006697 0.00104693 
3 1 3.12245 2.21731 1.41846 -0.0306459 -0.0252508 -0.0390661 
4 1 4.72123 2.78521 4.37705 0.0713093 0.0296069 -0.00702365 
5 1 -1.07623 0.44582 3.44515 0.0287302 -0.0289143 0.0798598 
6 1 -3.40004 4.2647 2.98093 0.0801104 -0.0110477 -0.0100983 
7 1 -2.36375 -4.45777 -1.9918 -0.0254594 -0.052561 0.00189382 
8 1 2.93723 -0.493762 2.39547 0.0465064 -0.00263233 0.012378 
9 1 2.81438 -3.56142 4.90723 0.0141151 -0.0204026 0.074623 
10 1 -4.44358 -1.20801 4.08688 -0.0792182 -0.0492742 -0.00936554 
11 1 4.44149 2.95109 -2.56546 0.0103631 -0.0201117 0.0364266 
12 1 3.56699 0.572208 -3.95577 -0.0413963 0.0281406 -0.0113309 
13 1 -5.04905 -3.3201 3.15569 0.00445867 -0.0194336 -0.101763 
14 1 0.1406 -1.54422 -1.52635 -0.0833414 0.0312122 0.0563569 
15 1 -2.78798 -2.21212 -0.907262 0.0334765 0.0121393 0.0603343 
16 1 1.74035 2.90375 4.02933 -0.000513312 0.0198739 -0.0470476 
17 1 -0.928614 1.52903 -3.71422 -0.0305623 0.0458806 0.00469288 
18 1 4.33305 0.462755 -0.707309 -0.0133409 -0.0113696 0.0112958 
19 1 -2.9496 1.66262 3.93672 -0.0468294 -0.027768 -0.0688519 
20 1 2.62033 -0.591685 -1.91291 0.0398603 0.00358548 0.00185246 
21 1 3.8647 4.69154 0.509065 -0.00247391 0.0209407 0.00860403 
22 1 -1.00362 -1.71486 2.23 0.0632644 -0.0755821 0.0523143 
23 1 -1.59071 2.58781 0.954365 -0.00885774 0.0464746 0.00648087 
24 1 -2.59451 -0.0114386 1.24606 -0.053207 0.0745312 -0.0149271 
25 1 0.158935 0.466787 1.20093 0.0065882 -0.0126614 0.00130743 
26 2 -2.2332 -3.67926 -0.673984 -0.0101994 -0.0119254 -0.0127828 
27 2 -2.47825 4.19735 -2.53576 0.0459834 -0.0332117 0.0641253 
28 2 4.61123 1.62482 -4.09889 0.0186058 -0.0180621 -0.0722485 
29 2 2.62808 -5.05245 -4.88815 -0.0338678 -0.0388936 -0.0273824 
30 2 -3.20972 -1.15533 -4.76912 0.0795084 0.0365357 -0.0108287 
31 2 3.23395 0.165735 0.451987 -0.0221839 0.0592378 -0.0470165 
32 2 -1.76166 0.718601 -4.43733 0.0531144 -0.0296821 0.0683799 
33 2 4.20528 0.0406064 3.97616 -0.0236486 -0.0362897 -0.061524 
34 2 -3.16511 -4.53585 3.71868 0.0310787 -0.025798 0.00190984 
35 2 -0.370901 -1.59933 1.10267 -0.0536266 -0.015547 -0.00490004 
36 2 -4.04484 2.59259 3.7303 -0.0452243 0.044603 -0.0199058 
37 2 1.84763 0.677112 2.3011 -0.0110301 0.00934977 -0.018674 
38 2 4.36094 4.3459 -0.81331 -0.00926723 0.0349783 -0.0173143 
39 2 4.27089 -0.451041 -2.01125 0.0116048 -0.0498313 -0.0323794 
40 2 3.95072 -2.05373 2.45289 -0.0122751 0.0874957 0.0155835 
41 2 2.92576 2.72677 2.76203 -0.0141401 -0.000934324 0.04158 
42 2 -1.1549 -2.19206 -2.50586 -0.00566891 -0.0704283 -0.0823674 
43 2 -3.78202 -1.74208 -0.0894223 0.0187569 -0.0303206 0.0647361 
44 2 0.901791 0.265701 -1.48192 -0.0333579 0.0708311 -0.000148807 
45 2 0.520761 2.44367 0.548534 0.00680652 0.00906881 0.0462335 
46 2 -2.81918 4.41071 1.46767 -0.0368236 0.103127 0.0657341 
47 2 -2.32984 1.13932 0.293689 -0.0878001 -0.042531 0.0335866 
48 2 -0.310476 -0.495638 2.98536 0.102516 -0.0434232 0.03169 
49 2 -1.68605 2.22659 2.83015 0.0153468 -0.0235917 -0.0782616 
50 2 -2.54472 -0.559238 2.98417 0.0282683 0.0157411 -0.0192345 
ITEM: TIMESTEP
400
ITEM: NUMBER OF ATOMS
50
ITEM: BOX BOUNDS pp pp pp
-5 5
-5 5
-5 5
ITEM: ATOMS id type x y z vx vy vz 
1 1 -1.77978 -4.14695 0.567478 -0.0579414 0.0658229 -0.00953933 
2 1 -1.75016 -1.22177 -3.84464 0.0176818 -0.0088444 0.0283555 
3 1 2.432 1.61769 1.22552 -0.0879426 -0.0584969 -0.0130234 
4 1 4.7185 2.95611 4.61515 -0.0291357 0.0218823 0.00653345 
5 1 -0.90674 0.134397 4.25502 0.0157718 -0.0444863 0.0635214 
6 1 -2.66182 4.01395 2.98042 0.0494774 -0.00242357 0.015623 
7 1 -2.56882 -4.80566 -1.93906 -0.0111396 -0.0319804 0.00624666 
8 1 3.30553 -0.33843 2.48567 0.00310935 0.0243276 -0.00120114 
9 1 2.8436 -4.02528 5.63604 -0.00803968 -0.0769576 0.0611412 
10 1 -5.0448 -1.20822 4.03231 -0.0333477 0.0121095 -0.00337548 
11 1 4.6407 2.93809 -2.17038 0.0231762 0.020752 0.0484368 
12 1 3.49337 0.760882 -4.40157 0.0206218 0.00949523 -0.0697601 
13 1 5.10819 -3.43027 1.95113 0.038749 0.0146852 -0.120122 
14 1 -0.708981 -1.09621 -0.979388 -0.0547116 0.0655469 0.050802 
15 1 -2.44316 -2.2365 -0.268329 0.00486862 -0.0132388 0.0882568 
16 1 1.76185 3.20672 3.547 -0.016214 0.0494983 -0.028932 
17 1 -1.17156 2.18131 -3.36833 -0.0307037 0.0603162 0.0561596 
18 1 4.5912 0.144745 -0.511455 0.0656327 -0.0432651 0.0200261 
19 1 -3.36048 1.27926 3.19662 -0.0318297 -0.0297198 -0.0705454 
20 1 2.6748 -0.572976 -1.70574 -0.03808 0.00691699 0.0295034 
21 1 3.93923 4.89296 0.414664 0.0133548 0.00595254 -0.0366124 
22 1 -0.478992 -2.24501 2.93721 0.0536101 -0.0161096 0.057995 
23 1 -1.59852 2.7171 1.07698 0.0171464 -0.0231284 -0.00455833 
24 1 -3.25007 0.0277433 1.55403 -0.0578598 -0.0511218 0.0207627 
25 1 0.546213 0.420854 1.33666 0.0354052 0.00525719 0.0273647 
26 2 -2.15608 -3.8736 -0.692985 0.0121914 -0.00782892 -0.0167648 
27 2 -2.00311 3.5795 -2.02658 0.0483026 -0.0761745 0.0353061 
28 2 4.61996 1.84176 -4.53204 -0.0153525 0.0372338 -0.0104701 
29 2 2.34422 4.61932 -5.22293 -0.0239398 -0.0197706 -0.0289757 
30 2 -3.03039 -1.07508 -5.0652 -0.0197632 -0.00647053 -0.0404864 
31 2 3.18698 0.915954 -0.0750971 0.0104172 0.0794808 -0.0532595 
32 2 -1.07091 0.392884 -4.05676 0.0861465 -0.0167842 0.0188038 
33 2 4.0579 -0.134013 3.7381 -0.00288796 0.0494538 0.0415376 
34 2 -3.07226 -4.51081 4.00673 0.000406161 0.0073267 0.0494702 
35 2 -0.888055 -1.70145 0.430211 -0.055873 -0.0103298 -0.0980247 
36 2 -3.91784 3.06413 3.15753 0.0418874 0.0242307 -0.0620227 
37 2 1.77109 0.722749 2.02822 0.0134108 -0.00494181 -0.0311537 
38 2 4.21678 4.4366 -1.04527 -0.0144922 -0.0151551 -0.0241071 
39 2 4.06391 -0.642493 -2.31936 -0.0385607 0.00840187 -0.0201152 
40 2 4.0746 -1.906 2.61445 0.0404685 -0.077384 -0.0102946 
41 2 3.10763 2.89431 3.07156 0.0643986 0.00848436 -0.00182242 
42 2 -1.22056 -2.54263 -3.18938 -0.011021 -0.00407105 -0.0509182 
43 2 -3.68027 -1.76172 0.724238 0.0102646 0.0140581 0.0813964 
44 2 0.631316 0.456931 -1.60593 -0.0256783 -0.0255952 -0.0131363 
45 2 0.353483 2.50434 1.08254 -0.0260945 0.00509093 0.0504697 
46 2 -2.84975 5.31231 1.57776 0.0213939 0.0745638 -0.0331406 
47 2 -3.0319 1.29268 0.245368 -0.071559 0.0449616 -0.0281596 
48 2 0.590982 -1.05816 3.41846 0.0453865 -0.0721749 0.0554957 
49 2 -1.63355 1.87402 2.2503 -0.015398 -0.027895 -0.0143773 
50 2 -2.2999 -0.178072 2.60454 0.0242861 0.0484989 -0.0183092 
ITEM: TIMESTEP
500
ITEM: NUMBER OF ATOMS
50
ITEM: BOX BOUNDS pp pp pp
-5 5
-5 5
-5 5
ITEM: ATOMS id type x y z vx vy vz 
1 1 -1.71132 -3.97483 0.598925 0.0720569 -0.0285499 -0.0295389 
2 1 -1.77728 -1.21801 -3.62886 -0.0204522 0.00833324 0.0223857 
3 1 2.12414 1.89468 0.534086 0.00292984 0.0611163 -0.088482 
4 1 4.42314 3.3303 4.12793 -0.0209859 0.0304595 -0.0710713 
5 1 -0.754028 -0.201757 4.58081 0.0177016 -0.0184942 -0.00270323 
6 1 -2.52258 4.32317 3.20583 -0.0231232 0.0472081 0.0247531 
7 1 -2.46075 -5.24158 -1.83739 0.0303439 -0.0458187 0.0155175 
8 1 3.17089 -0.191516 2.57339 -0.00327731 0.00862259 0.0310597 
9 1 2.64814 -5.01509 -3.97867 -0.0291349 -0.11293 0.0197365 
10 1 5.03387 -1.36622 4.01233 0.047518 -0.0327448 -0.00556812 
11 1 4.82171 3.09227 -1.62428 0.0270454 -0.0397703 0.041704 
12 1 3.73609 0.93224 -4.89546 0.0119245 0.0626591 0.0289149 
13 1 -4.31453 -2.94289 1.1324 0.0282375 0.0263417 -0.0209924 
14 1 -0.827126 -0.0722917 -0.883461 0.00064414 0.0991665 -0.0143931 
15 1 -2.7081 -2.07498 0.420573 0.00222351 0.0356491 0.00730141 
16 1 1.88622 3.76227 3.31783 0.0396461 0.0495281 -0.0215591 
17 1 -1.40678 2.48231 -2.83087 0.00420811 -0.0311058 -0.00879551 
18 1 5.17066 -0.0330172 -0.478804 0.0356965 0.0251372 -0.0235479 
19 1 -3.30489 1.50372 2.73892 0.0448674 0.0627055 -0.0337257 
20 1 2.11256 -0.220389 -1.50144 -0.0589234 0.0601889 0.0039814 
21 1 4.00602 4.7606 -0.0512205 -0.00182271 -0.0154284 -0.0309952 
22 1 -0.0587872 -2.45095 3.4044 0.0113241 -0.054538 0.0281218 
23 1 -1.313 2.2815 0.859258 0.0275836 -0.0446014 -0.0144632 
24 1 -3.44127 -0.490883 1.44165 0.0270805 0.0374321 0.0312425 
25 1 0.136771 0.399322 1.75665 -0.0685844 0.00152908 0.0722824 
26 2 -2.27211 -3.88358 -1.14363 -0.0356797 -0.0192163 -0.0283944 
27 2 -1.66105 3.08733 -1.68564 0.00258413 0.0116696 0.0924807 
28 2 4.43293 2.26776 -4.29413 -0.0212617 0.0637316 0.0348174 
29 2 2.11506 4.51714 4.6341 -0.0185397 -0.00516408 -0.000370391 
30 2 -3.27183 -1.08516 4.66033 -0.0342186 0.00232623 -0.00807067 
31 2 3.40954 1.47181 -0.508665 0.0141777 0.0396065 -0.0264597 
32 2 -0.46407 0.270045 -4.03329 0.025495 -0.0142184 -0.00827425 
33 2 4.07408 0.251684 3.93362 0.0252236 -0.0365276 -0.068682 
34 2 -2.97579 -4.65792 4.46099 0.0206305 -0.0410807 0.0353702 
35 2 -1.42342 -1.81393 -0.317095 -0.0468495 0.0170037 -0.0473788 
36 2 -3.57264 3.04481 2.75867 0.00968283 -0.000478371 -0.0129096 
37 2 2.02934 0.213193 2.02764 -0.00333631 -0.0490554 -0.0252108 
38 2 4.15836 4.2085 -1.32946 -0.01062 0.00190832 -0.030217 
39 2 3.56936 -0.472588 -2.308 -0.0602168 0.0168129 0.0221586 
40 2 4.59539 -2.67925 2.46591 0.0512752 -0.0617882 -0.010505 
41 2 3.6272 2.94638 3.04315 0.0230401 0.0117913 -0.00536342 
42 2 -1.27957 -2.60148 -3.60621 0.00346117 -0.0123166 -0.0419163 
43 2 -3.7509 -1.80644 1.29507 -0.0317621 -0.0398655 0.0171846 
44 2 0.446743 -0.0975672 -1.44287 0.00597826 -0.0658459 0.0477867 
45 2 0.283346 2.45448 1.42563 0.0208078 -0.0266354 0.00952581 
46 2 -3.03847 -4.14798 1.57286 -0.0553798 0.0457838 0.021433 
47 2 -3.91092 1.43309 0.0607231 -0.0961649 -0.0299419 -0.0140386 
48 2 0.833817 -1.62881 4.04585 0.0284465 -0.0171957 0.0787389 
49 2 -1.86517 2.06267 2.38902 -0.00765824 0.0546336 0.0121123 
50 2 -2.26345 -0.134161 2.64238 -0.013843 -0.038033 -0.00498257 
